
     Program PROJWFC v.6.1 starts on  7May2021 at 15:18:11 

     This program is part of the open-source Quantum ESPRESSO suite
     for quantum simulation of materials; please cite
         "P. Giannozzi et al., J. Phys.:Condens. Matter 21 395502 (2009);
          URL http://www.quantum-espresso.org", 
     in publications or presentations arising from this work. More details at
     http://www.quantum-espresso.org/quote

     Parallel version (MPI & OpenMP), running on      12 processor cores
     Number of MPI processes:                 4
     Threads/MPI process:                     3
     R & G space division:  proc/nbgrp/npool/nimage =       4

     Reading data from directory:
     ./espresso.save

   Info: using nr1, nr2, nr3 values from input

   Info: using nr1, nr2, nr3 values from input

     IMPORTANT: XC functional enforced from input :
     Exchange-correlation      =  SLA  PW   PBE  PBE ( 1  4  3  4 0 0)
     Any further DFT definition will be discarded
     Please, verify this is what you really want

               file Sn.pbe-dn-rrkjus_psl.1.0.0.UPF: wavefunction(s)  5S 4D renormalized

     Parallelization info
     --------------------
     sticks:   dense  smooth     PW     G-vecs:    dense   smooth      PW
     Min        2391    1066    286               264007    78232   10964
     Max        2392    1068    287               264012    78235   10967
     Sum        9565    4267   1147              1056033   312933   43863


     Gaussian broadening (read from input): ngauss,degauss=   0    0.010000


     Calling projwave .... 

     Atomic states used for projection
     (read from pseudopotential files):

     state #   1: atom   1 (Sn ), wfc  1 (l=0 m= 1)
     state #   2: atom   1 (Sn ), wfc  2 (l=1 m= 1)
     state #   3: atom   1 (Sn ), wfc  2 (l=1 m= 2)
     state #   4: atom   1 (Sn ), wfc  2 (l=1 m= 3)
     state #   5: atom   1 (Sn ), wfc  3 (l=2 m= 1)
     state #   6: atom   1 (Sn ), wfc  3 (l=2 m= 2)
     state #   7: atom   1 (Sn ), wfc  3 (l=2 m= 3)
     state #   8: atom   1 (Sn ), wfc  3 (l=2 m= 4)
     state #   9: atom   1 (Sn ), wfc  3 (l=2 m= 5)
     state #  10: atom   2 (Sn ), wfc  1 (l=0 m= 1)
     state #  11: atom   2 (Sn ), wfc  2 (l=1 m= 1)
     state #  12: atom   2 (Sn ), wfc  2 (l=1 m= 2)
     state #  13: atom   2 (Sn ), wfc  2 (l=1 m= 3)
     state #  14: atom   2 (Sn ), wfc  3 (l=2 m= 1)
     state #  15: atom   2 (Sn ), wfc  3 (l=2 m= 2)
     state #  16: atom   2 (Sn ), wfc  3 (l=2 m= 3)
     state #  17: atom   2 (Sn ), wfc  3 (l=2 m= 4)
     state #  18: atom   2 (Sn ), wfc  3 (l=2 m= 5)
     state #  19: atom   3 (Sn ), wfc  1 (l=0 m= 1)
     state #  20: atom   3 (Sn ), wfc  2 (l=1 m= 1)
     state #  21: atom   3 (Sn ), wfc  2 (l=1 m= 2)
     state #  22: atom   3 (Sn ), wfc  2 (l=1 m= 3)
     state #  23: atom   3 (Sn ), wfc  3 (l=2 m= 1)
     state #  24: atom   3 (Sn ), wfc  3 (l=2 m= 2)
     state #  25: atom   3 (Sn ), wfc  3 (l=2 m= 3)
     state #  26: atom   3 (Sn ), wfc  3 (l=2 m= 4)
     state #  27: atom   3 (Sn ), wfc  3 (l=2 m= 5)
     state #  28: atom   4 (Sn ), wfc  1 (l=0 m= 1)
     state #  29: atom   4 (Sn ), wfc  2 (l=1 m= 1)
     state #  30: atom   4 (Sn ), wfc  2 (l=1 m= 2)
     state #  31: atom   4 (Sn ), wfc  2 (l=1 m= 3)
     state #  32: atom   4 (Sn ), wfc  3 (l=2 m= 1)
     state #  33: atom   4 (Sn ), wfc  3 (l=2 m= 2)
     state #  34: atom   4 (Sn ), wfc  3 (l=2 m= 3)
     state #  35: atom   4 (Sn ), wfc  3 (l=2 m= 4)
     state #  36: atom   4 (Sn ), wfc  3 (l=2 m= 5)
     state #  37: atom   5 (Sn ), wfc  1 (l=0 m= 1)
     state #  38: atom   5 (Sn ), wfc  2 (l=1 m= 1)
     state #  39: atom   5 (Sn ), wfc  2 (l=1 m= 2)
     state #  40: atom   5 (Sn ), wfc  2 (l=1 m= 3)
     state #  41: atom   5 (Sn ), wfc  3 (l=2 m= 1)
     state #  42: atom   5 (Sn ), wfc  3 (l=2 m= 2)
     state #  43: atom   5 (Sn ), wfc  3 (l=2 m= 3)
     state #  44: atom   5 (Sn ), wfc  3 (l=2 m= 4)
     state #  45: atom   5 (Sn ), wfc  3 (l=2 m= 5)
     state #  46: atom   6 (Sn ), wfc  1 (l=0 m= 1)
     state #  47: atom   6 (Sn ), wfc  2 (l=1 m= 1)
     state #  48: atom   6 (Sn ), wfc  2 (l=1 m= 2)
     state #  49: atom   6 (Sn ), wfc  2 (l=1 m= 3)
     state #  50: atom   6 (Sn ), wfc  3 (l=2 m= 1)
     state #  51: atom   6 (Sn ), wfc  3 (l=2 m= 2)
     state #  52: atom   6 (Sn ), wfc  3 (l=2 m= 3)
     state #  53: atom   6 (Sn ), wfc  3 (l=2 m= 4)
     state #  54: atom   6 (Sn ), wfc  3 (l=2 m= 5)
     state #  55: atom   7 (Sn ), wfc  1 (l=0 m= 1)
     state #  56: atom   7 (Sn ), wfc  2 (l=1 m= 1)
     state #  57: atom   7 (Sn ), wfc  2 (l=1 m= 2)
     state #  58: atom   7 (Sn ), wfc  2 (l=1 m= 3)
     state #  59: atom   7 (Sn ), wfc  3 (l=2 m= 1)
     state #  60: atom   7 (Sn ), wfc  3 (l=2 m= 2)
     state #  61: atom   7 (Sn ), wfc  3 (l=2 m= 3)
     state #  62: atom   7 (Sn ), wfc  3 (l=2 m= 4)
     state #  63: atom   7 (Sn ), wfc  3 (l=2 m= 5)
     state #  64: atom   8 (Sn ), wfc  1 (l=0 m= 1)
     state #  65: atom   8 (Sn ), wfc  2 (l=1 m= 1)
     state #  66: atom   8 (Sn ), wfc  2 (l=1 m= 2)
     state #  67: atom   8 (Sn ), wfc  2 (l=1 m= 3)
     state #  68: atom   8 (Sn ), wfc  3 (l=2 m= 1)
     state #  69: atom   8 (Sn ), wfc  3 (l=2 m= 2)
     state #  70: atom   8 (Sn ), wfc  3 (l=2 m= 3)
     state #  71: atom   8 (Sn ), wfc  3 (l=2 m= 4)
     state #  72: atom   8 (Sn ), wfc  3 (l=2 m= 5)
     state #  73: atom   9 (Sn ), wfc  1 (l=0 m= 1)
     state #  74: atom   9 (Sn ), wfc  2 (l=1 m= 1)
     state #  75: atom   9 (Sn ), wfc  2 (l=1 m= 2)
     state #  76: atom   9 (Sn ), wfc  2 (l=1 m= 3)
     state #  77: atom   9 (Sn ), wfc  3 (l=2 m= 1)
     state #  78: atom   9 (Sn ), wfc  3 (l=2 m= 2)
     state #  79: atom   9 (Sn ), wfc  3 (l=2 m= 3)
     state #  80: atom   9 (Sn ), wfc  3 (l=2 m= 4)
     state #  81: atom   9 (Sn ), wfc  3 (l=2 m= 5)
     state #  82: atom  10 (Se ), wfc  1 (l=0 m= 1)
     state #  83: atom  10 (Se ), wfc  2 (l=1 m= 1)
     state #  84: atom  10 (Se ), wfc  2 (l=1 m= 2)
     state #  85: atom  10 (Se ), wfc  2 (l=1 m= 3)
     state #  86: atom  11 (Se ), wfc  1 (l=0 m= 1)
     state #  87: atom  11 (Se ), wfc  2 (l=1 m= 1)
     state #  88: atom  11 (Se ), wfc  2 (l=1 m= 2)
     state #  89: atom  11 (Se ), wfc  2 (l=1 m= 3)
     state #  90: atom  12 (Se ), wfc  1 (l=0 m= 1)
     state #  91: atom  12 (Se ), wfc  2 (l=1 m= 1)
     state #  92: atom  12 (Se ), wfc  2 (l=1 m= 2)
     state #  93: atom  12 (Se ), wfc  2 (l=1 m= 3)
     state #  94: atom  13 (Se ), wfc  1 (l=0 m= 1)
     state #  95: atom  13 (Se ), wfc  2 (l=1 m= 1)
     state #  96: atom  13 (Se ), wfc  2 (l=1 m= 2)
     state #  97: atom  13 (Se ), wfc  2 (l=1 m= 3)
     state #  98: atom  14 (Se ), wfc  1 (l=0 m= 1)
     state #  99: atom  14 (Se ), wfc  2 (l=1 m= 1)
     state # 100: atom  14 (Se ), wfc  2 (l=1 m= 2)
     state # 101: atom  14 (Se ), wfc  2 (l=1 m= 3)
     state # 102: atom  15 (Se ), wfc  1 (l=0 m= 1)
     state # 103: atom  15 (Se ), wfc  2 (l=1 m= 1)
     state # 104: atom  15 (Se ), wfc  2 (l=1 m= 2)
     state # 105: atom  15 (Se ), wfc  2 (l=1 m= 3)
     state # 106: atom  16 (Se ), wfc  1 (l=0 m= 1)
     state # 107: atom  16 (Se ), wfc  2 (l=1 m= 1)
     state # 108: atom  16 (Se ), wfc  2 (l=1 m= 2)
     state # 109: atom  16 (Se ), wfc  2 (l=1 m= 3)
     state # 110: atom  17 (Se ), wfc  1 (l=0 m= 1)
     state # 111: atom  17 (Se ), wfc  2 (l=1 m= 1)
     state # 112: atom  17 (Se ), wfc  2 (l=1 m= 2)
     state # 113: atom  17 (Se ), wfc  2 (l=1 m= 3)
     state # 114: atom  18 (Se ), wfc  1 (l=0 m= 1)
     state # 115: atom  18 (Se ), wfc  2 (l=1 m= 1)
     state # 116: atom  18 (Se ), wfc  2 (l=1 m= 2)
     state # 117: atom  18 (Se ), wfc  2 (l=1 m= 3)
     state # 118: atom  19 (Se ), wfc  1 (l=0 m= 1)
     state # 119: atom  19 (Se ), wfc  2 (l=1 m= 1)
     state # 120: atom  19 (Se ), wfc  2 (l=1 m= 2)
     state # 121: atom  19 (Se ), wfc  2 (l=1 m= 3)
     state # 122: atom  20 (Se ), wfc  1 (l=0 m= 1)
     state # 123: atom  20 (Se ), wfc  2 (l=1 m= 1)
     state # 124: atom  20 (Se ), wfc  2 (l=1 m= 2)
     state # 125: atom  20 (Se ), wfc  2 (l=1 m= 3)
     state # 126: atom  21 (Se ), wfc  1 (l=0 m= 1)
     state # 127: atom  21 (Se ), wfc  2 (l=1 m= 1)
     state # 128: atom  21 (Se ), wfc  2 (l=1 m= 2)
     state # 129: atom  21 (Se ), wfc  2 (l=1 m= 3)
     state # 130: atom  22 (Se ), wfc  1 (l=0 m= 1)
     state # 131: atom  22 (Se ), wfc  2 (l=1 m= 1)
     state # 132: atom  22 (Se ), wfc  2 (l=1 m= 2)
     state # 133: atom  22 (Se ), wfc  2 (l=1 m= 3)
     state # 134: atom  23 (Se ), wfc  1 (l=0 m= 1)
     state # 135: atom  23 (Se ), wfc  2 (l=1 m= 1)
     state # 136: atom  23 (Se ), wfc  2 (l=1 m= 2)
     state # 137: atom  23 (Se ), wfc  2 (l=1 m= 3)
     state # 138: atom  24 (Se ), wfc  1 (l=0 m= 1)
     state # 139: atom  24 (Se ), wfc  2 (l=1 m= 1)
     state # 140: atom  24 (Se ), wfc  2 (l=1 m= 2)
     state # 141: atom  24 (Se ), wfc  2 (l=1 m= 3)
     state # 142: atom  25 (Se ), wfc  1 (l=0 m= 1)
     state # 143: atom  25 (Se ), wfc  2 (l=1 m= 1)
     state # 144: atom  25 (Se ), wfc  2 (l=1 m= 2)
     state # 145: atom  25 (Se ), wfc  2 (l=1 m= 3)
     state # 146: atom  26 (Se ), wfc  1 (l=0 m= 1)
     state # 147: atom  26 (Se ), wfc  2 (l=1 m= 1)
     state # 148: atom  26 (Se ), wfc  2 (l=1 m= 2)
     state # 149: atom  26 (Se ), wfc  2 (l=1 m= 3)
     state # 150: atom  27 (Se ), wfc  1 (l=0 m= 1)
     state # 151: atom  27 (Se ), wfc  2 (l=1 m= 1)
     state # 152: atom  27 (Se ), wfc  2 (l=1 m= 2)
     state # 153: atom  27 (Se ), wfc  2 (l=1 m= 3)
     state # 154: atom  28 (Se ), wfc  1 (l=0 m= 1)
     state # 155: atom  28 (Se ), wfc  2 (l=1 m= 1)
     state # 156: atom  28 (Se ), wfc  2 (l=1 m= 2)
     state # 157: atom  28 (Se ), wfc  2 (l=1 m= 3)
     state # 158: atom  29 (Se ), wfc  1 (l=0 m= 1)
     state # 159: atom  29 (Se ), wfc  2 (l=1 m= 1)
     state # 160: atom  29 (Se ), wfc  2 (l=1 m= 2)
     state # 161: atom  29 (Se ), wfc  2 (l=1 m= 3)
     state # 162: atom  30 (Se ), wfc  1 (l=0 m= 1)
     state # 163: atom  30 (Se ), wfc  2 (l=1 m= 1)
     state # 164: atom  30 (Se ), wfc  2 (l=1 m= 2)
     state # 165: atom  30 (Se ), wfc  2 (l=1 m= 3)
     state # 166: atom  31 (Se ), wfc  1 (l=0 m= 1)
     state # 167: atom  31 (Se ), wfc  2 (l=1 m= 1)
     state # 168: atom  31 (Se ), wfc  2 (l=1 m= 2)
     state # 169: atom  31 (Se ), wfc  2 (l=1 m= 3)
     state # 170: atom  32 (Se ), wfc  1 (l=0 m= 1)
     state # 171: atom  32 (Se ), wfc  2 (l=1 m= 1)
     state # 172: atom  32 (Se ), wfc  2 (l=1 m= 2)
     state # 173: atom  32 (Se ), wfc  2 (l=1 m= 3)
     state # 174: atom  33 (Se ), wfc  1 (l=0 m= 1)
     state # 175: atom  33 (Se ), wfc  2 (l=1 m= 1)
     state # 176: atom  33 (Se ), wfc  2 (l=1 m= 2)
     state # 177: atom  33 (Se ), wfc  2 (l=1 m= 3)
     state # 178: atom  34 (Se ), wfc  1 (l=0 m= 1)
     state # 179: atom  34 (Se ), wfc  2 (l=1 m= 1)
     state # 180: atom  34 (Se ), wfc  2 (l=1 m= 2)
     state # 181: atom  34 (Se ), wfc  2 (l=1 m= 3)
     state # 182: atom  35 (Se ), wfc  1 (l=0 m= 1)
     state # 183: atom  35 (Se ), wfc  2 (l=1 m= 1)
     state # 184: atom  35 (Se ), wfc  2 (l=1 m= 2)
     state # 185: atom  35 (Se ), wfc  2 (l=1 m= 3)
     state # 186: atom  36 (Se ), wfc  1 (l=0 m= 1)
     state # 187: atom  36 (Se ), wfc  2 (l=1 m= 1)
     state # 188: atom  36 (Se ), wfc  2 (l=1 m= 2)
     state # 189: atom  36 (Se ), wfc  2 (l=1 m= 3)
     state # 190: atom  37 (Se ), wfc  1 (l=0 m= 1)
     state # 191: atom  37 (Se ), wfc  2 (l=1 m= 1)
     state # 192: atom  37 (Se ), wfc  2 (l=1 m= 2)
     state # 193: atom  37 (Se ), wfc  2 (l=1 m= 3)
     state # 194: atom  38 (Se ), wfc  1 (l=0 m= 1)
     state # 195: atom  38 (Se ), wfc  2 (l=1 m= 1)
     state # 196: atom  38 (Se ), wfc  2 (l=1 m= 2)
     state # 197: atom  38 (Se ), wfc  2 (l=1 m= 3)
     state # 198: atom  39 (Se ), wfc  1 (l=0 m= 1)
     state # 199: atom  39 (Se ), wfc  2 (l=1 m= 1)
     state # 200: atom  39 (Se ), wfc  2 (l=1 m= 2)
     state # 201: atom  39 (Se ), wfc  2 (l=1 m= 3)
     state # 202: atom  40 (Se ), wfc  1 (l=0 m= 1)
     state # 203: atom  40 (Se ), wfc  2 (l=1 m= 1)
     state # 204: atom  40 (Se ), wfc  2 (l=1 m= 2)
     state # 205: atom  40 (Se ), wfc  2 (l=1 m= 3)
     state # 206: atom  41 (Se ), wfc  1 (l=0 m= 1)
     state # 207: atom  41 (Se ), wfc  2 (l=1 m= 1)
     state # 208: atom  41 (Se ), wfc  2 (l=1 m= 2)
     state # 209: atom  41 (Se ), wfc  2 (l=1 m= 3)
     state # 210: atom  42 (Se ), wfc  1 (l=0 m= 1)
     state # 211: atom  42 (Se ), wfc  2 (l=1 m= 1)
     state # 212: atom  42 (Se ), wfc  2 (l=1 m= 2)
     state # 213: atom  42 (Se ), wfc  2 (l=1 m= 3)
     state # 214: atom  43 (Se ), wfc  1 (l=0 m= 1)
     state # 215: atom  43 (Se ), wfc  2 (l=1 m= 1)
     state # 216: atom  43 (Se ), wfc  2 (l=1 m= 2)
     state # 217: atom  43 (Se ), wfc  2 (l=1 m= 3)
     state # 218: atom  44 (Se ), wfc  1 (l=0 m= 1)
     state # 219: atom  44 (Se ), wfc  2 (l=1 m= 1)
     state # 220: atom  44 (Se ), wfc  2 (l=1 m= 2)
     state # 221: atom  44 (Se ), wfc  2 (l=1 m= 3)
     state # 222: atom  45 (Se ), wfc  1 (l=0 m= 1)
     state # 223: atom  45 (Se ), wfc  2 (l=1 m= 1)
     state # 224: atom  45 (Se ), wfc  2 (l=1 m= 2)
     state # 225: atom  45 (Se ), wfc  2 (l=1 m= 3)
     state # 226: atom  46 (W  ), wfc  1 (l=0 m= 1)
     state # 227: atom  46 (W  ), wfc  2 (l=1 m= 1)
     state # 228: atom  46 (W  ), wfc  2 (l=1 m= 2)
     state # 229: atom  46 (W  ), wfc  2 (l=1 m= 3)
     state # 230: atom  46 (W  ), wfc  3 (l=2 m= 1)
     state # 231: atom  46 (W  ), wfc  3 (l=2 m= 2)
     state # 232: atom  46 (W  ), wfc  3 (l=2 m= 3)
     state # 233: atom  46 (W  ), wfc  3 (l=2 m= 4)
     state # 234: atom  46 (W  ), wfc  3 (l=2 m= 5)
     state # 235: atom  46 (W  ), wfc  4 (l=0 m= 1)
     state # 236: atom  46 (W  ), wfc  5 (l=1 m= 1)
     state # 237: atom  46 (W  ), wfc  5 (l=1 m= 2)
     state # 238: atom  46 (W  ), wfc  5 (l=1 m= 3)
     state # 239: atom  47 (W  ), wfc  1 (l=0 m= 1)
     state # 240: atom  47 (W  ), wfc  2 (l=1 m= 1)
     state # 241: atom  47 (W  ), wfc  2 (l=1 m= 2)
     state # 242: atom  47 (W  ), wfc  2 (l=1 m= 3)
     state # 243: atom  47 (W  ), wfc  3 (l=2 m= 1)
     state # 244: atom  47 (W  ), wfc  3 (l=2 m= 2)
     state # 245: atom  47 (W  ), wfc  3 (l=2 m= 3)
     state # 246: atom  47 (W  ), wfc  3 (l=2 m= 4)
     state # 247: atom  47 (W  ), wfc  3 (l=2 m= 5)
     state # 248: atom  47 (W  ), wfc  4 (l=0 m= 1)
     state # 249: atom  47 (W  ), wfc  5 (l=1 m= 1)
     state # 250: atom  47 (W  ), wfc  5 (l=1 m= 2)
     state # 251: atom  47 (W  ), wfc  5 (l=1 m= 3)
     state # 252: atom  48 (W  ), wfc  1 (l=0 m= 1)
     state # 253: atom  48 (W  ), wfc  2 (l=1 m= 1)
     state # 254: atom  48 (W  ), wfc  2 (l=1 m= 2)
     state # 255: atom  48 (W  ), wfc  2 (l=1 m= 3)
     state # 256: atom  48 (W  ), wfc  3 (l=2 m= 1)
     state # 257: atom  48 (W  ), wfc  3 (l=2 m= 2)
     state # 258: atom  48 (W  ), wfc  3 (l=2 m= 3)
     state # 259: atom  48 (W  ), wfc  3 (l=2 m= 4)
     state # 260: atom  48 (W  ), wfc  3 (l=2 m= 5)
     state # 261: atom  48 (W  ), wfc  4 (l=0 m= 1)
     state # 262: atom  48 (W  ), wfc  5 (l=1 m= 1)
     state # 263: atom  48 (W  ), wfc  5 (l=1 m= 2)
     state # 264: atom  48 (W  ), wfc  5 (l=1 m= 3)
     state # 265: atom  49 (W  ), wfc  1 (l=0 m= 1)
     state # 266: atom  49 (W  ), wfc  2 (l=1 m= 1)
     state # 267: atom  49 (W  ), wfc  2 (l=1 m= 2)
     state # 268: atom  49 (W  ), wfc  2 (l=1 m= 3)
     state # 269: atom  49 (W  ), wfc  3 (l=2 m= 1)
     state # 270: atom  49 (W  ), wfc  3 (l=2 m= 2)
     state # 271: atom  49 (W  ), wfc  3 (l=2 m= 3)
     state # 272: atom  49 (W  ), wfc  3 (l=2 m= 4)
     state # 273: atom  49 (W  ), wfc  3 (l=2 m= 5)
     state # 274: atom  49 (W  ), wfc  4 (l=0 m= 1)
     state # 275: atom  49 (W  ), wfc  5 (l=1 m= 1)
     state # 276: atom  49 (W  ), wfc  5 (l=1 m= 2)
     state # 277: atom  49 (W  ), wfc  5 (l=1 m= 3)
     state # 278: atom  50 (W  ), wfc  1 (l=0 m= 1)
     state # 279: atom  50 (W  ), wfc  2 (l=1 m= 1)
     state # 280: atom  50 (W  ), wfc  2 (l=1 m= 2)
     state # 281: atom  50 (W  ), wfc  2 (l=1 m= 3)
     state # 282: atom  50 (W  ), wfc  3 (l=2 m= 1)
     state # 283: atom  50 (W  ), wfc  3 (l=2 m= 2)
     state # 284: atom  50 (W  ), wfc  3 (l=2 m= 3)
     state # 285: atom  50 (W  ), wfc  3 (l=2 m= 4)
     state # 286: atom  50 (W  ), wfc  3 (l=2 m= 5)
     state # 287: atom  50 (W  ), wfc  4 (l=0 m= 1)
     state # 288: atom  50 (W  ), wfc  5 (l=1 m= 1)
     state # 289: atom  50 (W  ), wfc  5 (l=1 m= 2)
     state # 290: atom  50 (W  ), wfc  5 (l=1 m= 3)
     state # 291: atom  51 (W  ), wfc  1 (l=0 m= 1)
     state # 292: atom  51 (W  ), wfc  2 (l=1 m= 1)
     state # 293: atom  51 (W  ), wfc  2 (l=1 m= 2)
     state # 294: atom  51 (W  ), wfc  2 (l=1 m= 3)
     state # 295: atom  51 (W  ), wfc  3 (l=2 m= 1)
     state # 296: atom  51 (W  ), wfc  3 (l=2 m= 2)
     state # 297: atom  51 (W  ), wfc  3 (l=2 m= 3)
     state # 298: atom  51 (W  ), wfc  3 (l=2 m= 4)
     state # 299: atom  51 (W  ), wfc  3 (l=2 m= 5)
     state # 300: atom  51 (W  ), wfc  4 (l=0 m= 1)
     state # 301: atom  51 (W  ), wfc  5 (l=1 m= 1)
     state # 302: atom  51 (W  ), wfc  5 (l=1 m= 2)
     state # 303: atom  51 (W  ), wfc  5 (l=1 m= 3)
     state # 304: atom  52 (W  ), wfc  1 (l=0 m= 1)
     state # 305: atom  52 (W  ), wfc  2 (l=1 m= 1)
     state # 306: atom  52 (W  ), wfc  2 (l=1 m= 2)
     state # 307: atom  52 (W  ), wfc  2 (l=1 m= 3)
     state # 308: atom  52 (W  ), wfc  3 (l=2 m= 1)
     state # 309: atom  52 (W  ), wfc  3 (l=2 m= 2)
     state # 310: atom  52 (W  ), wfc  3 (l=2 m= 3)
     state # 311: atom  52 (W  ), wfc  3 (l=2 m= 4)
     state # 312: atom  52 (W  ), wfc  3 (l=2 m= 5)
     state # 313: atom  52 (W  ), wfc  4 (l=0 m= 1)
     state # 314: atom  52 (W  ), wfc  5 (l=1 m= 1)
     state # 315: atom  52 (W  ), wfc  5 (l=1 m= 2)
     state # 316: atom  52 (W  ), wfc  5 (l=1 m= 3)
     state # 317: atom  53 (W  ), wfc  1 (l=0 m= 1)
     state # 318: atom  53 (W  ), wfc  2 (l=1 m= 1)
     state # 319: atom  53 (W  ), wfc  2 (l=1 m= 2)
     state # 320: atom  53 (W  ), wfc  2 (l=1 m= 3)
     state # 321: atom  53 (W  ), wfc  3 (l=2 m= 1)
     state # 322: atom  53 (W  ), wfc  3 (l=2 m= 2)
     state # 323: atom  53 (W  ), wfc  3 (l=2 m= 3)
     state # 324: atom  53 (W  ), wfc  3 (l=2 m= 4)
     state # 325: atom  53 (W  ), wfc  3 (l=2 m= 5)
     state # 326: atom  53 (W  ), wfc  4 (l=0 m= 1)
     state # 327: atom  53 (W  ), wfc  5 (l=1 m= 1)
     state # 328: atom  53 (W  ), wfc  5 (l=1 m= 2)
     state # 329: atom  53 (W  ), wfc  5 (l=1 m= 3)
     state # 330: atom  54 (W  ), wfc  1 (l=0 m= 1)
     state # 331: atom  54 (W  ), wfc  2 (l=1 m= 1)
     state # 332: atom  54 (W  ), wfc  2 (l=1 m= 2)
     state # 333: atom  54 (W  ), wfc  2 (l=1 m= 3)
     state # 334: atom  54 (W  ), wfc  3 (l=2 m= 1)
     state # 335: atom  54 (W  ), wfc  3 (l=2 m= 2)
     state # 336: atom  54 (W  ), wfc  3 (l=2 m= 3)
     state # 337: atom  54 (W  ), wfc  3 (l=2 m= 4)
     state # 338: atom  54 (W  ), wfc  3 (l=2 m= 5)
     state # 339: atom  54 (W  ), wfc  4 (l=0 m= 1)
     state # 340: atom  54 (W  ), wfc  5 (l=1 m= 1)
     state # 341: atom  54 (W  ), wfc  5 (l=1 m= 2)
     state # 342: atom  54 (W  ), wfc  5 (l=1 m= 3)

 k =   0.0000000000  0.0000000000  0.0000000000
==== e(   1) =   -62.54148 eV ==== 
     psi = 0.122*[# 265]+0.122*[# 278]+0.122*[# 317]+0.110*[# 239]+0.110*[# 252]+
          +0.110*[# 291]+0.091*[# 226]+0.091*[# 304]+0.091*[# 330]+0.001*[# 123]+
          +0.001*[# 131]+0.001*[# 135]+0.001*[# 139]+0.001*[# 143]+0.001*[# 147]+
          +0.001*[# 195]+0.001*[# 203]+0.001*[# 207]+0.001*[# 211]+0.001*[# 215]+
          +0.001*[# 219]+0.001*[# 119]+0.001*[# 127]+0.001*[# 151]+0.001*[# 191]+
          +0.001*[# 199]+0.001*[# 223]+
    |psi|^2 = 1.000
==== e(   2) =   -62.53013 eV ==== 
     psi = 0.201*[# 265]+0.201*[# 278]+0.201*[# 317]+0.106*[# 239]+0.106*[# 252]+
          +0.106*[# 291]+0.006*[# 226]+0.006*[# 304]+0.006*[# 330]+0.004*[# 250]+
          +0.004*[# 277]+0.003*[# 264]+0.003*[# 289]+0.003*[# 303]+0.003*[# 328]+
          +0.002*[# 341]+0.002*[# 238]+0.002*[# 316]+0.002*[# 237]+0.002*[# 315]+
          +0.002*[# 274]+0.002*[# 287]+0.002*[# 326]+0.002*[# 342]+0.001*[# 263]+
          +0.001*[# 302]+0.001*[# 290]+0.001*[# 329]+
    |psi|^2 = 1.000
==== e(   3) =   -62.52937 eV ==== 
     psi = 0.175*[# 265]+0.175*[# 278]+0.175*[# 317]+0.136*[# 239]+0.136*[# 252]+
          +0.136*[# 291]+0.004*[# 277]+0.004*[# 250]+0.003*[# 289]+0.003*[# 328]+
          +0.003*[# 264]+0.003*[# 303]+0.003*[# 341]+0.002*[# 238]+0.002*[# 316]+
          +0.002*[# 237]+0.002*[# 315]+0.002*[# 274]+0.002*[# 287]+0.002*[# 326]+
          +0.002*[# 342]+0.001*[# 226]+0.001*[# 263]+0.001*[# 302]+0.001*[# 304]+
          +0.001*[# 330]+0.001*[# 248]+0.001*[# 261]+0.001*[# 290]+0.001*[# 300]+
          +0.001*[# 329]+
    |psi|^2 = 1.000
==== e(   4) =   -62.52868 eV ==== 
     psi = 0.221*[# 226]+0.221*[# 304]+0.221*[# 330]+0.069*[# 239]+0.069*[# 252]+
          +0.069*[# 291]+0.022*[# 265]+0.022*[# 278]+0.022*[# 317]+0.004*[# 251]+
          +0.004*[# 276]+0.003*[# 263]+0.003*[# 302]+0.003*[# 290]+0.003*[# 329]+
          +0.003*[# 342]+0.002*[# 237]+0.002*[# 315]+0.002*[# 235]+0.002*[# 313]+
          +0.002*[# 339]+0.002*[# 238]+0.002*[# 316]+0.002*[# 264]+0.002*[# 303]+
          +0.001*[# 341]+0.001*[# 289]+0.001*[# 328]+
    |psi|^2 = 1.000
==== e(   5) =   -62.52786 eV ==== 
     psi = 0.149*[# 226]+0.149*[# 304]+0.149*[# 330]+0.110*[# 239]+0.110*[# 252]+
          +0.110*[# 291]+0.054*[# 265]+0.054*[# 278]+0.054*[# 317]+0.005*[# 276]+
          +0.004*[# 290]+0.004*[# 329]+0.002*[# 251]+0.002*[# 341]+0.002*[# 238]+
          +0.002*[# 316]+0.002*[# 237]+0.002*[# 263]+0.002*[# 302]+0.002*[# 315]+
          +0.002*[# 342]+0.001*[# 289]+0.001*[# 328]+0.001*[# 235]+0.001*[# 313]+
          +0.001*[# 339]+0.001*[# 248]+0.001*[# 261]+0.001*[# 264]+0.001*[# 300]+
          +0.001*[# 303]+
    |psi|^2 = 1.000
==== e(   6) =   -62.52736 eV ==== 
     psi = 0.163*[# 239]+0.163*[# 252]+0.163*[# 291]+0.109*[# 265]+0.109*[# 278]+
          +0.109*[# 317]+0.040*[# 226]+0.040*[# 304]+0.040*[# 330]+0.004*[# 341]+
          +0.003*[# 238]+0.003*[# 316]+0.003*[# 237]+0.003*[# 315]+0.003*[# 277]+
          +0.003*[# 342]+0.002*[# 289]+0.002*[# 328]+0.002*[# 250]+0.002*[# 264]+
          +0.002*[# 303]+0.001*[# 248]+0.001*[# 261]+0.001*[# 300]+0.001*[# 263]+
          +0.001*[# 290]+0.001*[# 302]+
    |psi|^2 = 1.000
==== e(   7) =   -62.52719 eV ==== 
     psi = 0.132*[# 226]+0.132*[# 304]+0.132*[# 330]+0.095*[# 265]+0.095*[# 278]+
          +0.095*[# 317]+0.085*[# 239]+0.085*[# 252]+0.085*[# 291]+0.004*[# 251]+
          +0.004*[# 263]+0.004*[# 302]+0.003*[# 276]+0.003*[# 264]+0.002*[# 290]+
          +0.003*[# 303]+0.002*[# 329]+0.002*[# 250]+0.002*[# 289]+0.002*[# 328]+
          +0.002*[# 277]+0.002*[# 342]+0.001*[# 237]+0.001*[# 315]+
    |psi|^2 = 1.000
==== e(   8) =   -62.52162 eV ==== 
     psi = 0.148*[# 226]+0.148*[# 304]+0.148*[# 330]+0.088*[# 265]+0.088*[# 278]+
          +0.088*[# 317]+0.087*[# 239]+0.087*[# 252]+0.087*[# 291]+0.002*[# 235]+
          +0.002*[# 313]+0.002*[# 339]+0.001*[# 248]+0.001*[# 261]+0.001*[# 274]+
          +0.001*[# 287]+0.001*[# 300]+0.001*[# 326]+
    |psi|^2 = 1.000
==== e(   9) =   -62.52127 eV ==== 
     psi = 0.158*[# 226]+0.158*[# 304]+0.158*[# 330]+0.083*[# 265]+0.083*[# 278]+
          +0.083*[# 317]+0.082*[# 239]+0.082*[# 252]+0.082*[# 291]+0.002*[# 235]+
          +0.002*[# 313]+0.002*[# 339]+0.001*[# 248]+0.001*[# 261]+0.001*[# 274]+
          +0.001*[# 287]+0.001*[# 300]+0.001*[# 326]+
    |psi|^2 = 1.000
==== e(  10) =   -27.03455 eV ==== 
     psi = 0.112*[# 266]+0.112*[# 279]+0.112*[# 318]+0.111*[# 240]+0.111*[# 253]+
          +0.111*[# 292]+0.105*[# 227]+0.105*[# 305]+0.105*[# 331]+
    |psi|^2 = 1.000
==== e(  11) =   -26.99872 eV ==== 
     psi = 0.097*[# 267]+0.091*[# 281]+0.091*[# 320]+0.080*[# 280]+0.080*[# 319]+
          +0.074*[# 268]+0.071*[# 333]+0.056*[# 228]+0.056*[# 306]+0.049*[# 241]+
          +0.042*[# 255]+0.042*[# 294]+0.030*[# 254]+0.030*[# 293]+0.028*[# 229]+
          +0.028*[# 307]+0.023*[# 242]+0.014*[# 332]+
    |psi|^2 = 1.000
==== e(  12) =   -26.99834 eV ==== 
     psi = 0.087*[# 241]+0.079*[# 255]+0.079*[# 294]+0.068*[# 268]+0.063*[# 254]+
          +0.063*[# 293]+0.061*[# 280]+0.061*[# 319]+0.055*[# 242]+0.046*[# 281]+
          +0.046*[# 320]+0.041*[# 332]+0.040*[# 229]+0.040*[# 307]+0.039*[# 228]+
          +0.039*[# 306]+0.038*[# 267]+0.038*[# 333]+
    |psi|^2 = 1.000
==== e(  13) =   -26.99641 eV ==== 
     psi = 0.128*[# 241]+0.106*[# 255]+0.106*[# 294]+0.083*[# 267]+0.071*[# 281]+
          +0.071*[# 320]+0.062*[# 254]+0.062*[# 293]+0.047*[# 280]+0.047*[# 319]+
          +0.040*[# 242]+0.036*[# 333]+0.035*[# 268]+0.029*[# 228]+0.029*[# 306]+
          +0.013*[# 229]+0.013*[# 307]+0.006*[# 332]+
    |psi|^2 = 1.000
==== e(  14) =   -26.99609 eV ==== 
     psi = 0.129*[# 242]+0.115*[# 268]+0.102*[# 254]+0.102*[# 293]+0.089*[# 280]+
          +0.089*[# 319]+0.049*[# 255]+0.049*[# 294]+0.048*[# 332]+0.038*[# 281]+
          +0.038*[# 320]+0.036*[# 229]+0.036*[# 307]+0.022*[# 241]+0.013*[# 228]+
          +0.013*[# 306]+0.012*[# 267]+0.002*[# 333]+
    |psi|^2 = 1.000
==== e(  15) =   -26.99562 eV ==== 
     psi = 0.143*[# 332]+0.108*[# 229]+0.108*[# 307]+0.062*[# 242]+0.059*[# 268]+
          +0.058*[# 254]+0.058*[# 293]+0.049*[# 255]+0.049*[# 280]+0.049*[# 294]+
          +0.049*[# 319]+0.044*[# 241]+0.037*[# 228]+0.037*[# 306]+0.029*[# 281]+
          +0.029*[# 320]+0.019*[# 267]+0.002*[# 333]+
    |psi|^2 = 1.000
==== e(  16) =   -26.99510 eV ==== 
     psi = 0.110*[# 333]+0.108*[# 267]+0.088*[# 281]+0.088*[# 320]+0.083*[# 228]+
          +0.083*[# 306]+0.060*[# 241]+0.051*[# 255]+0.051*[# 294]+0.047*[# 280]+
          +0.047*[# 319]+0.031*[# 254]+0.031*[# 293]+0.029*[# 229]+0.029*[# 307]+
          +0.026*[# 268]+0.021*[# 242]+0.002*[# 332]+
    |psi|^2 = 1.000
==== e(  17) =   -26.99458 eV ==== 
     psi = 0.145*[# 333]+0.112*[# 228]+0.112*[# 306]+0.074*[# 267]+0.067*[# 281]+
          +0.067*[# 320]+0.054*[# 280]+0.054*[# 319]+0.047*[# 268]+0.046*[# 229]+
          +0.046*[# 307]+0.029*[# 242]+0.027*[# 254]+0.027*[# 293]+0.023*[# 255]+
          +0.023*[# 294]+0.021*[# 241]+0.013*[# 332]+
    |psi|^2 = 1.000
==== e(  18) =   -26.99425 eV ==== 
     psi = 0.169*[# 332]+0.134*[# 229]+0.134*[# 307]+0.081*[# 242]+0.067*[# 254]+
          +0.067*[# 293]+0.063*[# 228]+0.063*[# 306]+0.039*[# 255]+0.039*[# 294]+
          +0.027*[# 333]+0.025*[# 241]+0.018*[# 268]+0.015*[# 280]+0.015*[# 319]+
          +0.010*[# 281]+0.010*[# 320]+0.007*[# 267]+
    |psi|^2 = 1.000
==== e(  19) =   -26.98077 eV ==== 
     psi = 0.196*[# 266]+0.196*[# 279]+0.196*[# 318]+0.128*[# 240]+0.128*[# 253]+
          +0.128*[# 292]+0.005*[# 227]+0.005*[# 305]+0.005*[# 331]+
    |psi|^2 = 1.000
==== e(  20) =   -26.98006 eV ==== 
     psi = 0.179*[# 266]+0.179*[# 279]+0.179*[# 318]+0.149*[# 240]+0.149*[# 253]+
          +0.149*[# 292]+0.001*[# 227]+0.001*[# 305]+0.001*[# 331]+
    |psi|^2 = 1.000
==== e(  21) =   -26.97939 eV ==== 
     psi = 0.218*[# 227]+0.218*[# 305]+0.218*[# 331]+0.085*[# 240]+0.085*[# 253]+
          +0.085*[# 292]+0.026*[# 266]+0.026*[# 279]+0.026*[# 318]+
    |psi|^2 = 1.000
==== e(  22) =   -26.97851 eV ==== 
     psi = 0.211*[# 227]+0.211*[# 305]+0.211*[# 331]+0.074*[# 240]+0.074*[# 253]+
          +0.074*[# 292]+0.044*[# 266]+0.044*[# 279]+0.044*[# 318]+
    |psi|^2 = 1.000
==== e(  23) =   -26.97814 eV ==== 
     psi = 0.189*[# 266]+0.189*[# 279]+0.189*[# 318]+0.134*[# 240]+0.134*[# 253]+
          +0.134*[# 292]+0.006*[# 227]+0.006*[# 305]+0.006*[# 331]+
    |psi|^2 = 1.000
==== e(  24) =   -26.97786 eV ==== 
     psi = 0.203*[# 227]+0.203*[# 305]+0.203*[# 331]+0.094*[# 240]+0.094*[# 253]+
          +0.094*[# 292]+0.032*[# 266]+0.032*[# 279]+0.032*[# 318]+
    |psi|^2 = 1.000
==== e(  25) =   -26.95131 eV ==== 
     psi = 0.127*[# 227]+0.127*[# 305]+0.127*[# 331]+0.104*[# 240]+0.104*[# 253]+
          +0.104*[# 292]+0.098*[# 266]+0.098*[# 279]+0.098*[# 318]+
    |psi|^2 = 1.000
==== e(  26) =   -26.95102 eV ==== 
     psi = 0.110*[# 227]+0.110*[# 305]+0.110*[# 331]+0.110*[# 266]+0.110*[# 279]+
          +0.110*[# 318]+0.109*[# 240]+0.109*[# 253]+0.109*[# 292]+
    |psi|^2 = 1.000
==== e(  27) =   -26.95027 eV ==== 
     psi = 0.089*[# 333]+0.084*[# 242]+0.082*[# 268]+0.073*[# 228]+0.073*[# 306]+
          +0.069*[# 254]+0.069*[# 293]+0.068*[# 280]+0.068*[# 319]+0.041*[# 229]+
          +0.041*[# 307]+0.040*[# 255]+0.040*[# 294]+0.040*[# 281]+0.040*[# 320]+
          +0.025*[# 241]+0.025*[# 267]+0.025*[# 332]+
    |psi|^2 = 1.000
==== e(  28) =   -26.95026 eV ==== 
     psi = 0.086*[# 267]+0.085*[# 241]+0.084*[# 332]+0.070*[# 281]+0.070*[# 320]+
          +0.070*[# 255]+0.070*[# 294]+0.069*[# 229]+0.069*[# 307]+0.041*[# 228]+
          +0.041*[# 306]+0.040*[# 254]+0.040*[# 293]+0.040*[# 280]+0.040*[# 319]+
          +0.026*[# 333]+0.025*[# 242]+0.024*[# 268]+
    |psi|^2 = 1.000
==== e(  29) =   -26.79021 eV ==== 
     psi = 0.131*[# 268]+0.103*[# 242]+0.101*[# 280]+0.101*[# 319]+0.084*[# 254]+
          +0.084*[# 293]+0.057*[# 332]+0.046*[# 255]+0.046*[# 294]+0.043*[# 229]+
          +0.043*[# 307]+0.040*[# 281]+0.040*[# 320]+0.027*[# 241]+0.016*[# 228]+
          +0.016*[# 306]+0.010*[# 267]+0.002*[# 333]+
    |psi|^2 = 1.000
==== e(  30) =   -26.78998 eV ==== 
     psi = 0.154*[# 267]+0.118*[# 281]+0.118*[# 320]+0.113*[# 241]+0.088*[# 255]+
          +0.088*[# 294]+0.046*[# 280]+0.046*[# 319]+0.037*[# 333]+0.037*[# 254]+
          +0.037*[# 293]+0.029*[# 228]+0.029*[# 306]+0.013*[# 229]+0.013*[# 307]+
          +0.011*[# 242]+0.010*[# 268]+0.004*[# 332]+
    |psi|^2 = 1.000
==== e(  31) =   -26.78936 eV ==== 
     psi = 0.144*[# 333]+0.108*[# 228]+0.108*[# 306]+0.058*[# 267]+0.054*[# 241]+
          +0.053*[# 255]+0.053*[# 294]+0.050*[# 254]+0.050*[# 281]+0.050*[# 293]+
          +0.050*[# 320]+0.048*[# 242]+0.036*[# 229]+0.036*[# 307]+0.033*[# 280]+
          +0.033*[# 319]+0.025*[# 268]+
    |psi|^2 = 1.000
==== e(  32) =   -26.78886 eV ==== 
     psi = 0.102*[# 332]+0.096*[# 268]+0.080*[# 242]+0.078*[# 280]+0.078*[# 319]+
          +0.077*[# 229]+0.077*[# 307]+0.067*[# 254]+0.067*[# 293]+0.041*[# 281]+
          +0.041*[# 320]+0.041*[# 255]+0.041*[# 294]+0.028*[# 241]+0.026*[# 228]+
          +0.026*[# 306]+0.023*[# 267]+
    |psi|^2 = 1.000
==== e(  33) =   -26.78847 eV ==== 
     psi = 0.164*[# 332]+0.124*[# 229]+0.124*[# 307]+0.066*[# 241]+0.057*[# 255]+
          +0.057*[# 294]+0.047*[# 268]+0.043*[# 228]+0.043*[# 306]+0.040*[# 280]+
          +0.040*[# 319]+0.038*[# 254]+0.038*[# 293]+0.029*[# 242]+0.028*[# 281]+
          +0.028*[# 320]+0.021*[# 267]+0.003*[# 333]+
    |psi|^2 = 1.000
==== e(  34) =   -26.78821 eV ==== 
     psi = 0.143*[# 333]+0.108*[# 228]+0.108*[# 306]+0.061*[# 267]+0.057*[# 242]+
          +0.053*[# 254]+0.053*[# 293]+0.052*[# 281]+0.052*[# 320]+0.046*[# 255]+
          +0.046*[# 294]+0.043*[# 241]+0.038*[# 229]+0.038*[# 307]+0.033*[# 280]+
          +0.033*[# 319]+0.023*[# 268]+0.003*[# 332]+
    |psi|^2 = 1.000
==== e(  35) =   -26.72743 eV ==== 
     psi = 0.056*[# 332]+0.056*[# 242]+0.056*[# 229]+0.056*[# 307]+0.056*[# 254]+
          +0.056*[# 293]+0.055*[# 228]+0.055*[# 306]+0.055*[# 255]+0.055*[# 294]+
          +0.054*[# 333]+0.054*[# 241]+0.054*[# 268]+0.054*[# 280]+0.054*[# 319]+
          +0.054*[# 281]+0.054*[# 320]+0.053*[# 267]+
    |psi|^2 = 1.000
==== e(  36) =   -26.72741 eV ==== 
     psi = 0.058*[# 333]+0.057*[# 228]+0.057*[# 306]+0.056*[# 229]+0.056*[# 267]+
          +0.056*[# 307]+0.055*[# 332]+0.055*[# 281]+0.055*[# 320]+0.054*[# 242]+
          +0.054*[# 254]+0.054*[# 293]+0.053*[# 241]+0.053*[# 255]+0.053*[# 294]+
          +0.053*[# 280]+0.053*[# 319]+0.052*[# 268]+
    |psi|^2 = 1.000
==== e(  37) =   -11.51043 eV ==== 
     psi = 0.106*[#   9]+0.084*[#  26]+0.084*[#  80]+0.074*[#  72]+0.063*[#  35]+
          +0.063*[#  62]+0.045*[#  54]+0.042*[#  17]+0.042*[#  44]+0.041*[#  36]+
          +0.041*[#  63]+0.040*[#  27]+0.040*[#  81]+0.038*[#  18]+0.038*[#  45]+
          +0.035*[#  53]+0.030*[#  71]+0.017*[#   8]+0.009*[#   5]+0.009*[#  23]+
          +0.009*[#  77]+0.006*[#  14]+0.006*[#  41]+0.006*[#  50]+0.004*[#  32]+
          +0.004*[#  59]+0.004*[#  68]+
    |psi|^2 = 0.999
==== e(  38) =   -11.51042 eV ==== 
     psi = 0.100*[#   8]+0.086*[#  71]+0.080*[#  36]+0.080*[#  63]+0.079*[#  27]+
          +0.079*[#  81]+0.067*[#  35]+0.067*[#  62]+0.060*[#  72]+0.036*[#  26]+
          +0.036*[#  80]+0.034*[#  54]+0.029*[#  17]+0.029*[#  44]+0.018*[#  18]+
          +0.018*[#  45]+0.015*[#   9]+0.013*[#  53]+0.009*[#  32]+0.009*[#  59]+
          +0.009*[#  68]+0.007*[#  14]+0.007*[#  41]+0.007*[#  50]+0.003*[#   5]+
          +0.003*[#  23]+0.003*[#  77]+
    |psi|^2 = 0.999
==== e(  39) =   -11.51040 eV ==== 
     psi = 0.102*[#  53]+0.087*[#  18]+0.087*[#  45]+0.057*[#  17]+0.057*[#  44]+
          +0.054*[#   8]+0.054*[#  26]+0.054*[#  27]+0.054*[#   9]+0.054*[#  80]+
          +0.054*[#  81]+0.042*[#  54]+0.031*[#  72]+0.029*[#  35]+0.029*[#  62]+
          +0.027*[#  36]+0.027*[#  63]+0.026*[#  71]+0.009*[#   5]+0.009*[#  23]+
          +0.009*[#  77]+0.006*[#  32]+0.006*[#  59]+0.006*[#  68]+0.004*[#  14]+
          +0.004*[#  41]+0.004*[#  50]+
    |psi|^2 = 0.999
==== e(  40) =   -11.51037 eV ==== 
     psi = 0.090*[#  71]+0.080*[#  36]+0.080*[#  63]+0.071*[#   8]+0.062*[#  35]+
          +0.062*[#  62]+0.062*[#  27]+0.062*[#  81]+0.053*[#  72]+0.044*[#  26]+
          +0.044*[#  80]+0.043*[#  54]+0.036*[#  17]+0.036*[#  44]+0.035*[#   9]+
          +0.024*[#  18]+0.024*[#  45]+0.017*[#  53]+0.008*[#  14]+0.008*[#  41]+
          +0.008*[#  50]+0.007*[#  32]+0.007*[#  59]+0.007*[#  68]+0.004*[#   5]+
          +0.004*[#  23]+0.004*[#  77]+
    |psi|^2 = 0.999
==== e(  41) =   -11.51035 eV ==== 
     psi = 0.123*[#  53]+0.102*[#  18]+0.102*[#  45]+0.058*[#  17]+0.058*[#  44]+
          +0.056*[#   9]+0.052*[#  71]+0.049*[#  26]+0.049*[#  80]+0.042*[#  36]+
          +0.042*[#  63]+0.036*[#  54]+0.035*[#  27]+0.035*[#  81]+0.028*[#   8]+
          +0.022*[#  35]+0.022*[#  62]+0.013*[#  72]+0.010*[#   5]+0.010*[#  23]+
          +0.010*[#  77]+0.005*[#  14]+0.005*[#  41]+0.005*[#  50]+0.003*[#  32]+
          +0.003*[#  59]+0.003*[#  68]+
    |psi|^2 = 0.999
==== e(  42) =   -11.51034 eV ==== 
     psi = 0.108*[#  54]+0.086*[#  17]+0.086*[#  44]+0.077*[#  72]+0.064*[#  35]+
          +0.064*[#  62]+0.042*[#   9]+0.041*[#  26]+0.041*[#  80]+0.040*[#  18]+
          +0.040*[#  45]+0.039*[#  27]+0.039*[#  81]+0.038*[#  36]+0.038*[#  63]+
          +0.038*[#   8]+0.025*[#  71]+0.018*[#  53]+0.008*[#  32]+0.008*[#  59]+
          +0.008*[#  68]+0.007*[#  14]+0.007*[#  41]+0.007*[#  50]+0.003*[#   5]+
          +0.003*[#  23]+0.003*[#  77]+
    |psi|^2 = 0.999
==== e(  43) =   -11.44236 eV ==== 
     psi = 0.054*[#   6]+0.054*[#   7]+0.054*[#  25]+0.054*[#  16]+0.054*[#  24]+
          +0.054*[#  78]+0.054*[#  79]+0.054*[#  15]+0.054*[#  33]+0.054*[#  34]+
          +0.054*[#  42]+0.054*[#  43]+0.054*[#  51]+0.054*[#  60]+0.054*[#  70]+
          +0.054*[#  52]+0.054*[#  61]+0.054*[#  69]+0.001*[#  82]+0.001*[#  86]+
          +0.001*[#  90]+0.001*[#  94]+0.001*[#  98]+0.001*[# 102]+0.001*[# 106]+
          +0.001*[# 110]+0.001*[# 114]+0.001*[# 154]+0.001*[# 158]+0.001*[# 162]+
          +0.001*[# 166]+0.001*[# 170]+0.001*[# 174]+0.001*[# 178]+0.001*[# 182]+
          +0.001*[# 186]+
    |psi|^2 = 1.000
==== e(  44) =   -11.44236 eV ==== 
     psi = 0.054*[#   6]+0.054*[#  25]+0.054*[#  33]+0.054*[#  34]+0.054*[#  69]+
          +0.054*[#  15]+0.054*[#  24]+0.054*[#  52]+0.054*[#  60]+0.054*[#  61]+
          +0.054*[#  70]+0.054*[#  78]+0.054*[#  79]+0.054*[#   7]+0.054*[#  42]+
          +0.054*[#  16]+0.054*[#  43]+0.053*[#  51]+0.001*[#  82]+0.001*[#  86]+
          +0.001*[#  90]+0.001*[#  94]+0.001*[#  98]+0.001*[# 102]+0.001*[# 106]+
          +0.001*[# 110]+0.001*[# 114]+0.001*[# 154]+0.001*[# 158]+0.001*[# 162]+
          +0.001*[# 166]+0.001*[# 170]+0.001*[# 174]+0.001*[# 178]+0.001*[# 182]+
          +0.001*[# 186]+
    |psi|^2 = 1.000
==== e(  45) =   -11.41546 eV ==== 
     psi = 0.101*[#   6]+0.081*[#  25]+0.081*[#  79]+0.081*[#  69]+0.068*[#  34]+
          +0.068*[#  61]+0.057*[#  51]+0.051*[#  16]+0.051*[#  43]+0.042*[#  33]+
          +0.042*[#  60]+0.041*[#  24]+0.041*[#  78]+0.040*[#  15]+0.040*[#  42]+
          +0.035*[#  52]+0.030*[#  70]+0.021*[#   7]+0.001*[#  82]+0.001*[# 106]+
          +0.001*[# 114]+0.001*[# 154]+0.001*[# 178]+0.001*[# 186]+0.001*[#  94]+
          +0.001*[#  98]+0.001*[# 110]+0.001*[# 166]+0.001*[# 170]+0.001*[# 182]+
    |psi|^2 = 1.000
==== e(  46) =   -11.41545 eV ==== 
     psi = 0.105*[#   7]+0.095*[#  70]+0.085*[#  33]+0.085*[#  60]+0.084*[#  24]+
          +0.084*[#  78]+0.065*[#  34]+0.065*[#  61]+0.056*[#  69]+0.042*[#  25]+
          +0.042*[#  79]+0.034*[#  51]+0.028*[#  16]+0.028*[#  43]+0.021*[#   6]+
          +0.018*[#  15]+0.018*[#  42]+0.013*[#  52]+0.001*[#  82]+0.001*[# 106]+
          +0.001*[# 114]+0.001*[# 154]+0.001*[# 178]+0.001*[# 186]+0.001*[#  94]+
          +0.001*[#  98]+0.001*[# 110]+0.001*[# 166]+0.001*[# 170]+0.001*[# 182]+
    |psi|^2 = 1.000
==== e(  47) =   -11.41542 eV ==== 
     psi = 0.106*[#  52]+0.092*[#  15]+0.092*[#  42]+0.062*[#  16]+0.062*[#  43]+
          +0.054*[#   6]+0.054*[#  25]+0.054*[#  79]+0.052*[#  24]+0.052*[#  78]+
          +0.051*[#   7]+0.047*[#  51]+0.035*[#  69]+0.034*[#  34]+0.034*[#  61]+
          +0.031*[#  33]+0.031*[#  60]+0.030*[#  70]+0.001*[#  86]+0.001*[#  90]+
          +0.001*[# 102]+0.001*[# 158]+0.001*[# 162]+0.001*[# 174]+
    |psi|^2 = 1.000
==== e(  48) =   -11.41540 eV ==== 
     psi = 0.093*[#  70]+0.083*[#  33]+0.083*[#  60]+0.075*[#   7]+0.067*[#  24]+
          +0.067*[#  78]+0.062*[#  34]+0.062*[#  61]+0.051*[#  25]+0.051*[#  69]+
          +0.051*[#  79]+0.044*[#  51]+0.043*[#   6]+0.037*[#  16]+0.037*[#  43]+
          +0.024*[#  15]+0.024*[#  42]+0.018*[#  52]+0.001*[#  82]+0.001*[# 106]+
          +0.001*[# 114]+0.001*[# 154]+0.001*[# 178]+0.001*[# 186]+0.001*[#  94]+
          +0.001*[#  98]+0.001*[# 110]+0.001*[# 166]+0.001*[# 170]+0.001*[# 182]+
    |psi|^2 = 1.000
==== e(  49) =   -11.41537 eV ==== 
     psi = 0.131*[#  52]+0.109*[#  15]+0.109*[#  42]+0.064*[#  16]+0.064*[#  43]+
          +0.049*[#  70]+0.044*[#   6]+0.042*[#  25]+0.042*[#  79]+0.042*[#  33]+
          +0.042*[#  60]+0.042*[#  51]+0.039*[#  24]+0.039*[#  78]+0.037*[#   7]+
          +0.027*[#  34]+0.027*[#  61]+0.020*[#  69]+0.001*[#  86]+0.001*[#  90]+
          +0.001*[# 102]+0.001*[# 158]+0.001*[# 162]+0.001*[# 174]+0.001*[#  94]+
          +0.001*[#  98]+0.001*[# 110]+0.001*[# 166]+0.001*[# 170]+0.001*[# 182]+
    |psi|^2 = 1.000
==== e(  50) =   -11.41536 eV ==== 
     psi = 0.101*[#  51]+0.081*[#  16]+0.081*[#  43]+0.081*[#  69]+0.067*[#  34]+
          +0.067*[#  61]+0.060*[#   6]+0.053*[#  25]+0.053*[#  79]+0.041*[#  24]+
          +0.041*[#  78]+0.040*[#  15]+0.040*[#  42]+0.040*[#  33]+0.040*[#  60]+
          +0.034*[#   7]+0.027*[#  70]+0.020*[#  52]+0.001*[#  86]+0.001*[#  90]+
          +0.001*[# 102]+0.001*[# 158]+0.001*[# 162]+0.001*[# 174]+0.001*[#  94]+
          +0.001*[#  98]+0.001*[# 110]+0.001*[# 166]+0.001*[# 170]+0.001*[# 182]+
    |psi|^2 = 1.000
==== e(  51) =   -11.39393 eV ==== 
     psi = 0.055*[#   8]+0.055*[#   9]+0.055*[#  17]+0.055*[#  18]+0.055*[#  26]+
          +0.055*[#  27]+0.055*[#  35]+0.055*[#  36]+0.055*[#  44]+0.055*[#  45]+
          +0.055*[#  53]+0.055*[#  54]+0.055*[#  62]+0.055*[#  63]+0.055*[#  71]+
          +0.055*[#  72]+0.055*[#  80]+0.055*[#  81]+
    |psi|^2 = 0.999
==== e(  52) =   -11.39393 eV ==== 
     psi = 0.055*[#   8]+0.055*[#   9]+0.055*[#  17]+0.055*[#  18]+0.055*[#  26]+
          +0.055*[#  27]+0.055*[#  35]+0.055*[#  36]+0.055*[#  44]+0.055*[#  45]+
          +0.055*[#  53]+0.055*[#  54]+0.055*[#  62]+0.055*[#  63]+0.055*[#  71]+
          +0.055*[#  72]+0.055*[#  80]+0.055*[#  81]+
    |psi|^2 = 0.999
==== e(  53) =   -11.38420 eV ==== 
     psi = 0.054*[#   8]+0.054*[#   9]+0.054*[#  17]+0.054*[#  18]+0.054*[#  26]+
          +0.054*[#  27]+0.054*[#  35]+0.054*[#  36]+0.054*[#  44]+0.054*[#  45]+
          +0.054*[#  53]+0.054*[#  54]+0.054*[#  62]+0.054*[#  63]+0.054*[#  71]+
          +0.054*[#  72]+0.054*[#  80]+0.054*[#  81]+
    |psi|^2 = 1.000
==== e(  54) =   -11.38420 eV ==== 
     psi = 0.054*[#   8]+0.054*[#   9]+0.054*[#  17]+0.054*[#  18]+0.054*[#  26]+
          +0.054*[#  27]+0.054*[#  35]+0.054*[#  36]+0.054*[#  44]+0.054*[#  45]+
          +0.054*[#  53]+0.054*[#  54]+0.054*[#  62]+0.054*[#  63]+0.054*[#  71]+
          +0.054*[#  72]+0.054*[#  80]+0.054*[#  81]+
    |psi|^2 = 1.000
==== e(  55) =   -11.31997 eV ==== 
     psi = 0.060*[#   6]+0.060*[#  51]+0.060*[#  69]+0.057*[#  16]+0.057*[#  25]+
          +0.057*[#  34]+0.057*[#  43]+0.057*[#  61]+0.057*[#  79]+0.052*[#  15]+
          +0.052*[#  24]+0.052*[#  33]+0.052*[#  42]+0.052*[#  60]+0.052*[#  78]+
          +0.050*[#   7]+0.050*[#  52]+0.050*[#  70]+
    |psi|^2 = 0.999
==== e(  56) =   -11.31997 eV ==== 
     psi = 0.060*[#   7]+0.060*[#  52]+0.060*[#  70]+0.057*[#  15]+0.057*[#  24]+
          +0.057*[#  33]+0.057*[#  42]+0.057*[#  60]+0.057*[#  78]+0.052*[#  16]+
          +0.052*[#  25]+0.052*[#  34]+0.052*[#  43]+0.052*[#  61]+0.052*[#  79]+
          +0.050*[#   6]+0.050*[#  51]+0.050*[#  69]+
    |psi|^2 = 0.999
==== e(  57) =   -11.29642 eV ==== 
     psi = 0.110*[#   5]+0.110*[#  14]+0.110*[#  23]+0.110*[#  32]+0.110*[#  41]+
          +0.110*[#  50]+0.110*[#  59]+0.110*[#  68]+0.110*[#  77]+
    |psi|^2 = 0.999
==== e(  58) =   -11.24116 eV ==== 
     psi = 0.071*[#   9]+0.071*[#  72]+0.071*[#  54]+0.063*[#  26]+0.063*[#  35]+
          +0.063*[#  62]+0.063*[#  80]+0.063*[#  17]+0.063*[#  44]+0.047*[#  18]+
          +0.047*[#  27]+0.047*[#  36]+0.047*[#  45]+0.047*[#  63]+0.047*[#  81]+
          +0.039*[#   8]+0.039*[#  53]+0.039*[#  71]+
    |psi|^2 = 1.000
==== e(  59) =   -11.24116 eV ==== 
     psi = 0.071*[#   8]+0.071*[#  53]+0.071*[#  71]+0.063*[#  18]+0.063*[#  27]+
          +0.063*[#  36]+0.063*[#  45]+0.063*[#  63]+0.063*[#  81]+0.047*[#  17]+
          +0.047*[#  26]+0.047*[#  35]+0.047*[#  44]+0.047*[#  62]+0.047*[#  80]+
          +0.039*[#   9]+0.039*[#  54]+0.039*[#  72]+
    |psi|^2 = 1.000
==== e(  60) =   -11.22049 eV ==== 
     psi = 0.109*[#   7]+0.087*[#  24]+0.087*[#  78]+0.081*[#  70]+0.068*[#  33]+
          +0.068*[#  60]+0.054*[#  52]+0.050*[#  15]+0.050*[#  42]+0.043*[#  34]+
          +0.043*[#  61]+0.042*[#  25]+0.042*[#  79]+0.041*[#  16]+0.041*[#  43]+
          +0.037*[#  51]+0.030*[#  69]+0.019*[#   6]+
    |psi|^2 = 1.000
==== e(  61) =   -11.22048 eV ==== 
     psi = 0.103*[#   6]+0.100*[#  69]+0.090*[#  34]+0.090*[#  61]+0.083*[#  25]+
          +0.083*[#  79]+0.070*[#  33]+0.070*[#  60]+0.060*[#  70]+0.042*[#  24]+
          +0.042*[#  78]+0.032*[#  52]+0.028*[#  15]+0.028*[#  42]+0.022*[#   7]+
          +0.019*[#  16]+0.019*[#  43]+0.015*[#  51]+
    |psi|^2 = 1.000
==== e(  62) =   -11.22045 eV ==== 
     psi = 0.108*[#  51]+0.093*[#  16]+0.093*[#  43]+0.063*[#  15]+0.063*[#  42]+
          +0.059*[#   6]+0.058*[#  25]+0.058*[#  79]+0.056*[#  24]+0.056*[#  78]+
          +0.055*[#   7]+0.047*[#  52]+0.034*[#  70]+0.032*[#  33]+0.032*[#  60]+
          +0.029*[#  34]+0.029*[#  61]+0.027*[#  69]+
    |psi|^2 = 1.000
==== e(  63) =   -11.22042 eV ==== 
     psi = 0.092*[#  69]+0.083*[#  34]+0.083*[#  61]+0.078*[#   6]+0.069*[#  25]+
          +0.069*[#  79]+0.065*[#  33]+0.065*[#  60]+0.056*[#  70]+0.049*[#  24]+
          +0.049*[#  78]+0.047*[#  52]+0.040*[#  15]+0.040*[#  42]+0.040*[#   7]+
          +0.025*[#  16]+0.025*[#  43]+0.017*[#  51]+
    |psi|^2 = 1.000
==== e(  64) =   -11.22040 eV ==== 
     psi = 0.132*[#  51]+0.109*[#  16]+0.109*[#  43]+0.062*[#  15]+0.062*[#  42]+
          +0.062*[#   7]+0.056*[#  69]+0.054*[#  24]+0.054*[#  78]+0.045*[#  34]+
          +0.045*[#  61]+0.039*[#  52]+0.038*[#  25]+0.038*[#  79]+0.030*[#   6]+
          +0.023*[#  33]+0.023*[#  60]+0.012*[#  70]+
    |psi|^2 = 1.000
==== e(  65) =   -11.22039 eV ==== 
     psi = 0.112*[#  52]+0.089*[#  15]+0.089*[#  42]+0.088*[#  70]+0.072*[#  33]+
          +0.072*[#  60]+0.044*[#  16]+0.044*[#  43]+0.043*[#   7]+0.043*[#  24]+
          +0.043*[#  78]+0.042*[#  25]+0.042*[#  79]+0.042*[#   6]+0.041*[#  34]+
          +0.041*[#  61]+0.025*[#  69]+0.021*[#  51]+
    |psi|^2 = 1.000
==== e(  66) =   -11.18256 eV ==== 
     psi = 0.113*[#   8]+0.090*[#  27]+0.090*[#  81]+0.079*[#  71]+0.068*[#  36]+
          +0.068*[#  63]+0.052*[#  53]+0.048*[#  18]+0.048*[#  45]+0.044*[#  35]+
          +0.044*[#  62]+0.042*[#  26]+0.042*[#  80]+0.041*[#  17]+0.041*[#  44]+
          +0.038*[#  54]+0.032*[#  72]+0.018*[#   9]+
    |psi|^2 = 1.000
==== e(  67) =   -11.18255 eV ==== 
     psi = 0.112*[#   9]+0.097*[#  72]+0.088*[#  26]+0.088*[#  80]+0.088*[#  35]+
          +0.088*[#  62]+0.069*[#  36]+0.069*[#  63]+0.059*[#  71]+0.040*[#  27]+
          +0.040*[#  81]+0.034*[#  53]+0.029*[#  18]+0.029*[#  45]+0.018*[#  17]+
          +0.018*[#  44]+0.017*[#   8]+0.013*[#  54]+
    |psi|^2 = 1.000
==== e(  68) =   -11.18252 eV ==== 
     psi = 0.107*[#  54]+0.091*[#  17]+0.091*[#  44]+0.061*[#   8]+0.060*[#  27]+
          +0.060*[#  81]+0.060*[#  18]+0.060*[#  45]+0.058*[#  26]+0.058*[#  80]+
          +0.058*[#   9]+0.044*[#  53]+0.036*[#  71]+0.034*[#  36]+0.034*[#  63]+
          +0.029*[#  35]+0.029*[#  62]+0.027*[#  72]+
    |psi|^2 = 1.000
==== e(  69) =   -11.18250 eV ==== 
     psi = 0.092*[#  72]+0.083*[#  35]+0.083*[#  62]+0.075*[#   9]+0.066*[#  36]+
          +0.066*[#  63]+0.066*[#  26]+0.066*[#  80]+0.057*[#  71]+0.052*[#  53]+
          +0.048*[#  27]+0.048*[#  81]+0.044*[#  18]+0.044*[#  45]+0.039*[#   8]+
          +0.026*[#  17]+0.026*[#  44]+0.018*[#  54]+
    |psi|^2 = 1.000
==== e(  70) =   -11.18247 eV ==== 
     psi = 0.138*[#  54]+0.113*[#  17]+0.113*[#  44]+0.061*[#  18]+0.061*[#  45]+
          +0.059*[#  72]+0.057*[#   8]+0.050*[#  27]+0.050*[#  81]+0.047*[#  35]+
          +0.047*[#  62]+0.036*[#  26]+0.036*[#  80]+0.036*[#  53]+0.029*[#   9]+
          +0.025*[#  36]+0.025*[#  63]+0.014*[#  71]+
    |psi|^2 = 1.000
==== e(  71) =   -11.18246 eV ==== 
     psi = 0.114*[#  53]+0.090*[#  18]+0.090*[#  45]+0.087*[#  71]+0.072*[#  36]+
          +0.072*[#  63]+0.046*[#   8]+0.044*[#  27]+0.044*[#  81]+0.043*[#  17]+
          +0.043*[#  44]+0.042*[#  26]+0.042*[#  80]+0.041*[#  35]+0.041*[#  62]+
          +0.041*[#   9]+0.026*[#  72]+0.019*[#  54]+
    |psi|^2 = 1.000
==== e(  72) =   -11.18034 eV ==== 
     psi = 0.055*[#   6]+0.055*[#   7]+0.055*[#  15]+0.055*[#  16]+0.055*[#  24]+
          +0.055*[#  25]+0.055*[#  33]+0.055*[#  34]+0.055*[#  42]+0.055*[#  43]+
          +0.055*[#  51]+0.055*[#  52]+0.055*[#  60]+0.055*[#  61]+0.055*[#  69]+
          +0.055*[#  70]+0.055*[#  78]+0.055*[#  79]+
    |psi|^2 = 0.999
==== e(  73) =   -11.18034 eV ==== 
     psi = 0.055*[#  15]+0.056*[#  52]+0.055*[#  16]+0.055*[#  42]+0.055*[#  34]+
          +0.055*[#  43]+0.055*[#  51]+0.055*[#  61]+0.055*[#  69]+0.055*[#   6]+
          +0.055*[#   7]+0.055*[#  24]+0.055*[#  25]+0.055*[#  33]+0.055*[#  60]+
          +0.055*[#  70]+0.055*[#  78]+0.055*[#  79]+
    |psi|^2 = 0.999
==== e(  74) =   -11.14785 eV ==== 
     psi = 0.202*[#   5]+0.202*[#  23]+0.202*[#  77]+0.084*[#  32]+0.084*[#  59]+
          +0.084*[#  68]+0.028*[#  14]+0.028*[#  41]+0.028*[#  50]+0.007*[#  53]+
          +0.005*[#  18]+0.005*[#  45]+0.004*[#   9]+0.004*[#  72]+0.004*[#  26]+
          +0.004*[#  80]+0.003*[#  35]+0.003*[#  62]+0.003*[#  27]+0.003*[#  81]+
          +0.002*[#  36]+0.002*[#  63]+0.002*[#   8]+0.002*[#  17]+0.002*[#  44]+
          +0.001*[#  71]+
    |psi|^2 = 1.000
==== e(  75) =   -11.14785 eV ==== 
     psi = 0.206*[#  32]+0.206*[#  59]+0.206*[#  68]+0.065*[#  14]+0.065*[#  41]+
          +0.065*[#  50]+0.042*[#   5]+0.042*[#  23]+0.042*[#  77]+0.006*[#   8]+
          +0.006*[#  72]+0.004*[#  27]+0.005*[#  35]+0.005*[#  62]+0.004*[#  81]+
          +0.004*[#  54]+0.003*[#  17]+0.003*[#  44]+0.002*[#  36]+0.002*[#  63]+
          +0.002*[#  18]+0.002*[#  45]+0.002*[#  26]+0.002*[#  53]+0.002*[#  80]+
          +0.001*[#  71]+
    |psi|^2 = 1.000
==== e(  76) =   -11.14781 eV ==== 
     psi = 0.191*[#  14]+0.191*[#  41]+0.191*[#  50]+0.111*[#   5]+0.111*[#  23]+
          +0.111*[#  77]+0.011*[#  32]+0.011*[#  59]+0.011*[#  68]+0.006*[#  71]+
          +0.005*[#   9]+0.004*[#  36]+0.004*[#  63]+0.004*[#  26]+0.004*[#  80]+
          +0.004*[#  54]+0.004*[#  17]+0.004*[#  44]+0.003*[#  18]+0.003*[#  45]+
          +0.002*[#  53]+0.002*[#  27]+0.002*[#  81]+0.002*[#  35]+0.002*[#  62]+
    |psi|^2 = 1.000
==== e(  77) =   -11.14777 eV ==== 
     psi = 0.197*[#  32]+0.197*[#  59]+0.197*[#  68]+0.098*[#   5]+0.098*[#  23]+
          +0.098*[#  77]+0.018*[#  14]+0.018*[#  41]+0.018*[#  50]+0.006*[#  72]+
          +0.005*[#   8]+0.005*[#  35]+0.005*[#  62]+0.004*[#  27]+0.004*[#  81]+
          +0.004*[#  53]+0.003*[#  18]+0.003*[#  45]+0.003*[#  17]+0.003*[#  44]+
          +0.002*[#  54]+0.002*[#  26]+0.002*[#  80]+0.002*[#  36]+0.002*[#  63]+
          +0.001*[#   9]+
    |psi|^2 = 1.000
==== e(  78) =   -11.14774 eV ==== 
     psi = 0.169*[#   5]+0.169*[#  23]+0.169*[#  77]+0.142*[#  14]+0.142*[#  41]+
          +0.142*[#  50]+0.006*[#   9]+0.005*[#  71]+0.004*[#  26]+0.004*[#  53]+
          +0.004*[#  80]+0.004*[#  36]+0.004*[#  63]+0.004*[#  18]+0.004*[#  45]+
          +0.003*[#  17]+0.003*[#  44]+0.002*[#  54]+0.002*[#  35]+0.002*[#  62]+
          +0.002*[#  32]+0.002*[#  59]+0.002*[#  68]+0.002*[#  27]+0.002*[#  81]+
    |psi|^2 = 1.000
==== e(  79) =   -11.14772 eV ==== 
     psi = 0.181*[#  14]+0.181*[#  41]+0.181*[#  50]+0.127*[#  32]+0.127*[#  59]+
          +0.127*[#  68]+0.006*[#  54]+0.005*[#   5]+0.005*[#  23]+0.005*[#  77]+
          +0.005*[#   8]+0.005*[#  71]+0.005*[#  17]+0.005*[#  44]+0.004*[#  27]+
          +0.004*[#  36]+0.004*[#  63]+0.004*[#  81]+0.002*[#  26]+0.002*[#  35]+
          +0.002*[#  62]+0.002*[#  80]+0.002*[#  72]+0.001*[#   9]+0.002*[#  18]+
          +0.002*[#  45]+
    |psi|^2 = 1.000
==== e(  80) =   -11.10874 eV ==== 
     psi = 0.111*[#   5]+0.111*[#  14]+0.111*[#  23]+0.111*[#  41]+0.111*[#  50]+
          +0.111*[#  77]+0.110*[#  32]+0.110*[#  59]+0.110*[#  68]+
    |psi|^2 = 1.000
==== e(  81) =   -11.10874 eV ==== 
     psi = 0.111*[#  14]+0.111*[#  32]+0.111*[#  41]+0.111*[#  50]+0.111*[#  59]+
          +0.111*[#  68]+0.110*[#   5]+0.110*[#  23]+0.110*[#  77]+
    |psi|^2 = 1.000
==== e(  82) =    -6.32766 eV ==== 
     psi = 0.045*[#   1]+0.045*[#  10]+0.045*[#  19]+0.045*[#  28]+0.045*[#  37]+
          +0.045*[#  46]+0.045*[#  55]+0.045*[#  64]+0.045*[#  73]+0.028*[#  82]+
          +0.028*[#  86]+0.028*[#  90]+0.028*[#  94]+0.028*[#  98]+0.028*[# 102]+
          +0.028*[# 106]+0.028*[# 110]+0.028*[# 114]+0.028*[# 154]+0.028*[# 158]+
          +0.028*[# 162]+0.028*[# 166]+0.028*[# 170]+0.028*[# 174]+0.028*[# 178]+
          +0.028*[# 182]+0.028*[# 186]+0.005*[#  83]+0.005*[#  87]+0.005*[#  91]+
          +0.005*[#  95]+0.005*[#  99]+0.005*[# 103]+0.005*[# 107]+0.005*[# 111]+
          +0.005*[# 115]+0.005*[# 155]+0.005*[# 159]+0.005*[# 163]+0.005*[# 167]+
          +0.005*[# 171]+0.005*[# 175]+0.005*[# 179]+0.005*[# 183]+0.005*[# 187]+
    |psi|^2 = 0.999
==== e(  83) =    -4.60521 eV ==== 
     psi = 0.043*[# 235]+0.044*[# 248]+0.044*[# 261]+0.044*[# 274]+0.044*[# 287]+
          +0.044*[# 300]+0.043*[# 313]+0.044*[# 326]+0.043*[# 339]+0.032*[# 118]+
          +0.032*[# 122]+0.032*[# 126]+0.032*[# 130]+0.032*[# 134]+0.032*[# 138]+
          +0.032*[# 142]+0.032*[# 146]+0.032*[# 150]+0.032*[# 190]+0.032*[# 194]+
          +0.032*[# 198]+0.032*[# 202]+0.032*[# 206]+0.032*[# 210]+0.032*[# 214]+
          +0.032*[# 218]+0.032*[# 222]+0.001*[# 226]+0.001*[# 239]+0.001*[# 252]+
          +0.001*[# 265]+0.001*[# 278]+0.001*[# 291]+0.001*[# 304]+0.001*[# 317]+
          +0.001*[# 330]+0.001*[# 119]+0.001*[# 123]+0.001*[# 127]+0.001*[# 131]+
          +0.001*[# 135]+0.001*[# 139]+0.001*[# 143]+0.001*[# 147]+0.001*[# 151]+
          +0.001*[# 191]+0.001*[# 195]+0.001*[# 199]+0.001*[# 203]+0.001*[# 207]+
          +0.001*[# 211]+0.001*[# 215]+0.001*[# 219]+0.001*[# 223]+
    |psi|^2 = 0.999
==== e(  84) =    -4.35945 eV ==== 
     psi = 0.029*[#  86]+0.029*[#  90]+0.029*[# 102]+0.029*[# 158]+0.029*[# 162]+
          +0.029*[# 174]+0.026*[#   1]+0.026*[#  19]+0.026*[#  73]+0.025*[#  82]+
          +0.025*[# 106]+0.025*[# 114]+0.025*[# 154]+0.025*[# 178]+0.025*[# 186]+
          +0.025*[#  48]+0.022*[#  94]+0.022*[#  98]+0.022*[# 110]+0.022*[# 166]+
          +0.022*[# 170]+0.022*[# 182]+0.020*[#  13]+0.020*[#  40]+0.016*[#  67]+
          +0.015*[#   3]+0.015*[#  10]+0.015*[#  37]+0.015*[#  46]+0.015*[#  30]+
          +0.015*[#  57]+0.015*[#  31]+0.015*[#  58]+0.014*[#  66]+0.014*[#  28]+
          +0.014*[#  55]+0.014*[#  64]+0.014*[#  22]+0.014*[#  76]+0.011*[#  12]+
          +0.011*[#  39]+0.010*[#  21]+0.010*[#  75]+0.009*[#   4]+0.006*[#  49]+
          +0.003*[#  87]+0.003*[#  91]+0.003*[# 103]+0.003*[# 159]+0.003*[# 163]+
          +0.003*[# 175]+0.003*[# 116]+0.003*[# 188]+0.003*[#  83]+0.003*[# 107]+
          +0.003*[# 115]+0.003*[# 155]+0.003*[# 179]+0.003*[# 187]+0.002*[#  85]+
          +0.002*[# 109]+0.002*[# 157]+0.002*[# 181]+0.002*[#  95]+0.002*[#  99]+
          +0.002*[# 111]+0.002*[# 167]+0.002*[# 171]+0.002*[# 183]+0.002*[#  96]+
          +0.002*[# 168]+0.002*[#  84]+0.002*[# 101]+0.002*[# 108]+0.002*[# 113]+
          +0.002*[# 156]+0.002*[# 173]+0.002*[# 180]+0.002*[# 185]+0.002*[#  88]+
          +0.002*[# 160]+0.001*[#  93]+0.001*[# 105]+0.001*[# 100]+0.001*[# 112]+
          +0.001*[# 117]+0.001*[# 165]+0.001*[# 177]+0.001*[# 172]+0.001*[# 184]+
          +0.001*[# 189]+0.001*[#  92]+0.001*[#  97]+0.001*[# 104]+0.001*[# 164]+
          +0.001*[# 169]+0.001*[# 176]+
    |psi|^2 = 0.998
==== e(  85) =    -4.35944 eV ==== 
     psi = 0.031*[#  28]+0.031*[#  55]+0.031*[#  64]+0.031*[#  49]+0.031*[#  94]+
          +0.031*[#  98]+0.031*[# 110]+0.031*[# 166]+0.031*[# 170]+0.031*[# 182]+
          +0.026*[#  86]+0.026*[#  90]+0.026*[# 102]+0.026*[# 158]+0.026*[# 162]+
          +0.026*[# 174]+0.024*[#  12]+0.024*[#  39]+0.020*[#  82]+0.020*[# 106]+
          +0.020*[# 114]+0.020*[# 154]+0.020*[# 178]+0.020*[# 186]+0.018*[#   3]+
          +0.017*[#  10]+0.017*[#  37]+0.017*[#  46]+0.016*[#  22]+0.016*[#  76]+
          +0.014*[#  66]+0.012*[#  31]+0.012*[#  58]+0.012*[#  21]+0.012*[#  75]+
          +0.011*[#  13]+0.011*[#  40]+0.010*[#  30]+0.010*[#  57]+0.010*[#   4]+
          +0.008*[#  67]+0.007*[#   1]+0.007*[#  19]+0.007*[#  73]+0.005*[#  48]+
          +0.003*[#  95]+0.003*[#  99]+0.003*[# 111]+0.003*[# 167]+0.003*[# 171]+
          +0.003*[# 183]+0.003*[#  97]+0.003*[# 169]+0.003*[#  87]+0.003*[#  91]+
          +0.003*[# 100]+0.003*[# 103]+0.003*[# 112]+0.003*[# 159]+0.003*[# 163]+
          +0.003*[# 172]+0.003*[# 175]+0.003*[# 184]+0.002*[# 101]+0.002*[# 113]+
          +0.002*[# 173]+0.002*[# 185]+0.002*[#  83]+0.002*[# 107]+0.002*[# 115]+
          +0.002*[# 155]+0.002*[# 179]+0.002*[# 187]+0.002*[#  96]+0.002*[# 168]+
          +0.002*[#  88]+0.002*[#  93]+0.002*[# 105]+0.002*[# 160]+0.002*[# 165]+
          +0.002*[# 177]+0.001*[#  89]+0.001*[#  92]+0.001*[# 104]+0.001*[# 161]+
          +0.001*[# 164]+0.001*[# 176]+0.001*[# 117]+0.001*[# 189]+
    |psi|^2 = 0.998
==== e(  86) =    -4.35942 eV ==== 
     psi = 0.042*[#  94]+0.042*[#  98]+0.042*[# 110]+0.042*[# 166]+0.042*[# 170]+
          +0.042*[# 182]+0.023*[#  66]+0.023*[#  31]+0.023*[#  58]+0.023*[#  30]+
          +0.023*[#  57]+0.023*[#  67]+0.022*[#  10]+0.022*[#  37]+0.022*[#  46]+
          +0.020*[#  82]+0.020*[# 106]+0.020*[# 114]+0.020*[# 154]+0.020*[# 178]+
          +0.020*[# 186]+0.018*[#   1]+0.018*[#  19]+0.018*[#  73]+0.016*[#   4]+
          +0.016*[#  28]+0.016*[#  55]+0.016*[#  64]+0.015*[#  86]+0.015*[#  90]+
          +0.015*[# 102]+0.015*[# 158]+0.015*[# 162]+0.015*[# 174]+0.014*[#  21]+
          +0.014*[#  75]+0.010*[#  22]+0.010*[#  76]+0.008*[#  12]+0.008*[#  39]+
          +0.008*[#  49]+0.008*[#  13]+0.008*[#  40]+0.008*[#  48]+0.008*[#   3]+
          +0.004*[#  95]+0.004*[#  99]+0.004*[# 111]+0.004*[# 167]+0.004*[# 171]+
          +0.004*[# 183]+0.003*[# 117]+0.003*[# 189]+0.003*[#  84]+0.003*[#  88]+
          +0.003*[# 108]+0.003*[# 156]+0.003*[# 160]+0.003*[# 180]+0.002*[#  93]+
          +0.002*[# 105]+0.002*[# 165]+0.002*[# 177]+0.002*[#  83]+0.002*[# 107]+
          +0.002*[# 115]+0.002*[# 155]+0.002*[# 179]+0.002*[# 187]+0.002*[#  85]+
          +0.002*[#  87]+0.002*[#  91]+0.002*[# 103]+0.002*[# 109]+0.002*[# 157]+
          +0.001*[#  92]+0.001*[# 104]+0.002*[# 159]+0.002*[# 163]+0.002*[# 175]+
          +0.002*[# 181]+0.001*[# 164]+0.001*[# 176]+0.001*[# 169]+
    |psi|^2 = 0.998
==== e(  87) =    -4.35936 eV ==== 
     psi = 0.034*[#  86]+0.034*[#  90]+0.034*[# 102]+0.034*[# 158]+0.034*[# 162]+
          +0.034*[# 174]+0.031*[#  82]+0.031*[# 106]+0.031*[# 114]+0.031*[# 154]+
          +0.031*[# 178]+0.031*[# 186]+0.024*[#  28]+0.024*[#  55]+0.024*[#  64]+
          +0.023*[#  49]+0.021*[#  12]+0.021*[#  39]+0.020*[#   3]+0.020*[#   1]+
          +0.020*[#  19]+0.020*[#  73]+0.019*[#  13]+0.019*[#  40]+0.018*[#  48]+
          +0.018*[#  22]+0.018*[#  76]+0.013*[#  21]+0.013*[#  75]+0.012*[#  10]+
          +0.012*[#  37]+0.012*[#  46]+0.012*[#  94]+0.012*[#  98]+0.012*[# 110]+
          +0.012*[# 166]+0.012*[# 170]+0.012*[# 182]+0.011*[#   4]+0.010*[#  67]+
          +0.008*[#  30]+0.008*[#  57]+0.005*[#  31]+0.005*[#  58]+0.004*[#  87]+
          +0.004*[#  91]+0.004*[# 103]+0.004*[# 159]+0.004*[# 163]+0.004*[# 175]+
          +0.003*[#  83]+0.003*[# 107]+0.003*[# 115]+0.003*[# 155]+0.003*[# 179]+
          +0.003*[# 187]+0.003*[#  66]+0.002*[#  96]+0.002*[#  97]+0.002*[# 100]+
          +0.002*[# 101]+0.002*[# 112]+0.002*[# 113]+0.002*[# 168]+0.002*[# 169]+
          +0.002*[# 172]+0.002*[# 173]+0.002*[# 184]+0.002*[# 185]+0.002*[#  89]+
          +0.002*[# 161]+0.002*[# 116]+0.002*[# 188]+0.002*[#  85]+0.002*[#  92]+
          +0.002*[# 104]+0.002*[# 109]+0.002*[# 157]+0.002*[# 164]+0.002*[# 176]+
          +0.002*[# 181]+0.001*[#  95]+0.001*[#  99]+0.001*[# 111]+0.001*[# 167]+
          +0.001*[# 171]+0.001*[# 183]+0.001*[#   9]+
    |psi|^2 = 0.998
==== e(  88) =    -4.35935 eV ==== 
     psi = 0.048*[#  82]+0.048*[# 106]+0.048*[# 114]+0.048*[# 154]+0.048*[# 178]+
          +0.048*[# 186]+0.030*[#   4]+0.027*[#  21]+0.027*[#  75]+0.024*[#   1]+
          +0.024*[#  19]+0.024*[#  73]+0.020*[#  22]+0.020*[#  76]+0.019*[#  67]+
          +0.018*[#  10]+0.018*[#  37]+0.018*[#  46]+0.017*[#   3]+0.016*[#  30]+
          +0.016*[#  57]+0.015*[#  94]+0.015*[#  98]+0.015*[# 110]+0.015*[# 166]+
          +0.015*[# 170]+0.015*[# 182]+0.014*[#  86]+0.014*[#  90]+0.014*[# 102]+
          +0.014*[# 158]+0.014*[# 162]+0.014*[# 174]+0.013*[#  28]+0.013*[#  55]+
          +0.013*[#  64]+0.009*[#  31]+0.009*[#  58]+0.007*[#  12]+0.007*[#  13]+
          +0.007*[#  39]+0.007*[#  40]+0.007*[#  48]+0.007*[#  49]+0.005*[#  66]+
          +0.005*[#  83]+0.005*[# 107]+0.005*[# 115]+0.005*[# 155]+0.005*[# 179]+
          +0.005*[# 187]+0.004*[#  89]+0.004*[# 161]+0.003*[#  92]+0.003*[# 104]+
          +0.003*[# 164]+0.003*[# 176]+0.002*[# 117]+0.002*[# 189]+0.002*[#  84]+
          +0.002*[#  96]+0.002*[# 108]+0.002*[# 156]+0.002*[# 168]+0.002*[# 180]+
          +0.002*[#  95]+0.002*[#  99]+0.001*[# 101]+0.002*[# 111]+0.001*[# 113]+
          +0.002*[# 167]+0.002*[# 171]+0.002*[# 183]+0.001*[#  87]+0.001*[#  91]+
          +0.001*[#  93]+0.001*[# 103]+0.001*[# 105]+0.001*[# 159]+0.001*[# 163]+
          +0.001*[# 165]+0.001*[# 173]+0.001*[# 175]+0.001*[# 177]+0.001*[# 185]+
          +0.001*[#  71]+0.001*[#  36]+0.001*[#  63]+0.001*[#  85]+0.001*[# 109]+
          +0.001*[# 157]+0.001*[# 181]+
    |psi|^2 = 0.998
==== e(  89) =    -4.35934 eV ==== 
     psi = 0.035*[#  86]+0.035*[#  90]+0.035*[# 102]+0.035*[# 158]+0.035*[# 162]+
          +0.035*[# 174]+0.032*[#  94]+0.032*[#  98]+0.032*[# 110]+0.032*[# 166]+
          +0.032*[# 170]+0.032*[# 182]+0.026*[#  66]+0.026*[#  10]+0.026*[#  37]+
          +0.026*[#  46]+0.023*[#  48]+0.022*[#  31]+0.022*[#  58]+0.020*[#  13]+
          +0.020*[#  40]+0.017*[#   1]+0.017*[#  19]+0.017*[#  73]+0.013*[#  12]+
          +0.013*[#  39]+0.013*[#  30]+0.013*[#  57]+0.013*[#  28]+0.013*[#  55]+
          +0.013*[#  64]+0.010*[#   4]+0.010*[#  49]+0.010*[#  82]+0.010*[# 106]+
          +0.010*[# 114]+0.010*[# 154]+0.010*[# 178]+0.010*[# 186]+0.009*[#  21]+
          +0.009*[#  75]+0.009*[#  67]+0.008*[#  22]+0.008*[#  76]+0.007*[#   3]+
          +0.004*[#  87]+0.004*[#  91]+0.004*[# 103]+0.004*[# 159]+0.004*[# 163]+
          +0.004*[# 175]+0.003*[#  95]+0.003*[#  99]+0.003*[# 111]+0.003*[# 167]+
          +0.003*[# 171]+0.003*[# 183]+0.003*[#  88]+0.003*[# 116]+0.003*[# 160]+
          +0.003*[# 188]+0.002*[#  85]+0.002*[#  93]+0.002*[# 105]+0.002*[# 109]+
          +0.002*[# 157]+0.002*[# 165]+0.002*[# 177]+0.002*[# 181]+0.002*[#  97]+
          +0.002*[# 169]+0.001*[#  84]+0.002*[# 100]+0.001*[# 108]+0.002*[# 112]+
          +0.001*[# 156]+0.002*[# 172]+0.001*[# 180]+0.002*[# 184]+0.001*[#  54]+
          +0.001*[#  17]+0.001*[#  44]+
    |psi|^2 = 0.998
==== e(  90) =    -3.79652 eV ==== 
     psi = 0.046*[#   2]+0.046*[#  11]+0.046*[#  20]+0.046*[#  29]+0.046*[#  38]+
          +0.046*[#  47]+0.046*[#  56]+0.046*[#  65]+0.046*[#  74]+0.032*[#  82]+
          +0.032*[#  86]+0.032*[#  90]+0.032*[#  94]+0.032*[#  98]+0.032*[# 102]+
          +0.032*[# 106]+0.032*[# 110]+0.032*[# 114]+0.032*[# 154]+0.032*[# 158]+
          +0.032*[# 162]+0.032*[# 166]+0.032*[# 170]+0.032*[# 174]+0.032*[# 178]+
          +0.032*[# 182]+0.032*[# 186]+
    |psi|^2 = 0.998
==== e(  91) =    -2.95234 eV ==== 
     psi = 0.061*[# 202]+0.061*[# 214]+0.061*[# 218]+0.061*[# 130]+0.061*[# 142]+
          +0.061*[# 146]+0.028*[# 122]+0.028*[# 134]+0.028*[# 138]+0.028*[# 194]+
          +0.028*[# 206]+0.028*[# 210]+0.022*[# 277]+0.021*[# 289]+0.021*[# 328]+
          +0.019*[# 290]+0.019*[# 329]+0.018*[# 276]+0.017*[# 250]+0.016*[# 274]+
          +0.016*[# 287]+0.016*[# 326]+0.014*[# 342]+0.014*[# 264]+0.014*[# 303]+
          +0.011*[# 237]+0.011*[# 315]+0.009*[# 263]+0.009*[# 302]+0.008*[# 248]+
          +0.008*[# 261]+0.008*[# 300]+0.007*[# 118]+0.007*[# 126]+0.007*[# 150]+
          +0.007*[# 190]+0.007*[# 198]+0.007*[# 222]+0.007*[# 235]+0.007*[# 313]+
          +0.007*[# 339]+0.006*[# 251]+0.004*[# 273]+0.004*[# 238]+0.004*[# 285]+
          +0.004*[# 316]+0.004*[# 324]+0.004*[# 337]+0.003*[# 234]+0.003*[# 286]+
          +0.003*[# 312]+0.003*[# 325]+0.003*[# 272]+0.002*[# 233]+0.002*[# 265]+
          +0.002*[# 278]+0.002*[# 311]+0.002*[# 317]+0.001*[# 131]+0.001*[# 141]+
          +0.001*[# 143]+0.001*[# 147]+0.001*[# 203]+0.001*[# 213]+0.001*[# 215]+
          +0.001*[# 219]+0.001*[# 247]+0.001*[# 259]+0.001*[# 298]+
    |psi|^2 = 0.999
==== e(  92) =    -2.95222 eV ==== 
     psi = 0.060*[# 194]+0.060*[# 206]+0.060*[# 210]+0.060*[# 122]+0.060*[# 134]+
          +0.060*[# 138]+0.029*[# 118]+0.029*[# 126]+0.029*[# 150]+0.029*[# 190]+
          +0.029*[# 198]+0.029*[# 222]+0.024*[# 250]+0.021*[# 264]+0.021*[# 303]+
          +0.021*[# 341]+0.017*[# 238]+0.017*[# 316]+0.016*[# 248]+0.016*[# 261]+
          +0.016*[# 300]+0.016*[# 263]+0.016*[# 302]+0.013*[# 251]+0.013*[# 277]+
          +0.010*[# 289]+0.010*[# 328]+0.009*[# 237]+0.009*[# 315]+0.009*[# 274]+
          +0.009*[# 287]+0.009*[# 326]+0.007*[# 130]+0.007*[# 142]+0.007*[# 146]+
          +0.007*[# 202]+0.007*[# 214]+0.007*[# 218]+0.006*[# 342]+0.005*[# 247]+
          +0.005*[# 235]+0.005*[# 313]+0.005*[# 339]+0.004*[# 259]+0.004*[# 298]+
          +0.004*[# 290]+0.004*[# 329]+0.003*[# 272]+0.003*[# 260]+0.002*[# 286]+
          +0.003*[# 299]+0.002*[# 325]+0.002*[# 285]+0.002*[# 324]+0.002*[# 239]+
          +0.002*[# 246]+0.002*[# 252]+0.002*[# 291]+0.001*[# 233]+0.001*[# 273]+
          +0.001*[# 311]+0.001*[# 338]+0.001*[# 123]+0.001*[# 135]+0.001*[# 139]+
          +0.001*[# 195]+0.001*[# 207]+0.001*[# 211]+0.001*[# 234]+0.001*[# 312]+
          +0.001*[# 337]+0.001*[# 148]+0.001*[# 220]+0.001*[# 265]+0.001*[# 278]+
          +0.001*[# 317]+
    |psi|^2 = 0.999
==== e(  93) =    -2.95190 eV ==== 
     psi = 0.061*[# 122]+0.061*[# 134]+0.061*[# 138]+0.061*[# 194]+0.061*[# 206]+
          +0.061*[# 210]+0.026*[# 130]+0.026*[# 142]+0.026*[# 146]+0.026*[# 202]+
          +0.026*[# 214]+0.026*[# 218]+0.022*[# 250]+0.022*[# 264]+0.022*[# 303]+
          +0.021*[# 263]+0.021*[# 302]+0.020*[# 251]+0.017*[# 277]+0.014*[# 289]+
          +0.014*[# 328]+0.012*[# 248]+0.012*[# 261]+0.012*[# 300]+0.011*[# 274]+
          +0.011*[# 287]+0.011*[# 326]+0.009*[# 118]+0.009*[# 126]+0.009*[# 150]+
          +0.009*[# 190]+0.009*[# 198]+0.009*[# 222]+0.009*[# 290]+0.009*[# 329]+
          +0.007*[# 235]+0.007*[# 313]+0.007*[# 339]+0.007*[# 342]+0.007*[# 237]+
          +0.007*[# 315]+0.006*[# 276]+0.006*[# 238]+0.006*[# 316]+0.005*[# 341]+
          +0.004*[# 272]+0.004*[# 286]+0.004*[# 325]+0.003*[# 247]+0.003*[# 259]+
          +0.003*[# 285]+0.003*[# 298]+0.003*[# 324]+0.003*[# 273]+0.003*[# 260]+
          +0.003*[# 299]+0.002*[# 246]+0.002*[# 337]+0.001*[# 123]+0.001*[# 135]+
          +0.001*[# 139]+0.001*[# 195]+0.001*[# 207]+0.001*[# 211]+0.001*[# 121]+
          +0.001*[# 193]+0.001*[# 317]+0.001*[# 234]+0.001*[# 239]+0.001*[# 252]+
          +0.001*[# 265]+0.001*[# 278]+0.001*[# 291]+0.001*[# 312]+0.001*[# 148]+
          +0.001*[# 220]+
    |psi|^2 = 0.999
==== e(  94) =    -2.95155 eV ==== 
     psi = 0.055*[# 190]+0.055*[# 198]+0.055*[# 222]+0.055*[# 118]+0.055*[# 126]+
          +0.055*[# 150]+0.038*[# 130]+0.038*[# 142]+0.038*[# 146]+0.038*[# 202]+
          +0.038*[# 214]+0.038*[# 218]+0.023*[# 342]+0.021*[# 237]+0.021*[# 315]+
          +0.018*[# 238]+0.018*[# 316]+0.017*[# 276]+0.017*[# 341]+0.016*[# 290]+
          +0.016*[# 329]+0.013*[# 235]+0.013*[# 289]+0.013*[# 313]+0.013*[# 328]+
          +0.013*[# 339]+0.012*[# 277]+0.010*[# 274]+0.010*[# 287]+0.010*[# 326]+
          +0.009*[# 251]+0.008*[# 248]+0.008*[# 261]+0.008*[# 300]+0.007*[# 263]+
          +0.007*[# 302]+0.004*[# 233]+0.004*[# 338]+0.004*[# 234]+0.004*[# 311]+
          +0.004*[# 312]+0.004*[# 337]+0.003*[# 246]+0.003*[# 122]+0.003*[# 134]+
          +0.003*[# 138]+0.003*[# 194]+0.003*[# 206]+0.003*[# 210]+0.002*[# 260]+
          +0.002*[# 264]+0.002*[# 299]+0.002*[# 303]+0.001*[# 149]+0.001*[# 221]+
          +0.001*[# 226]+0.001*[# 304]+0.001*[# 330]+0.001*[# 119]+0.001*[# 127]+
          +0.001*[# 151]+0.001*[# 191]+0.001*[# 199]+0.001*[# 223]+0.001*[# 259]+
          +0.001*[# 272]+0.001*[# 273]+0.001*[# 285]+0.001*[# 286]+0.001*[# 298]+
          +0.001*[# 324]+0.001*[# 325]+0.001*[# 132]+0.001*[# 144]+0.001*[# 204]+
          +0.001*[# 216]+
    |psi|^2 = 0.999
==== e(  95) =    -2.95133 eV ==== 
     psi = 0.057*[# 202]+0.057*[# 214]+0.057*[# 218]+0.057*[# 130]+0.057*[# 142]+
          +0.057*[# 146]+0.036*[# 118]+0.036*[# 126]+0.036*[# 150]+0.036*[# 190]+
          +0.036*[# 198]+0.036*[# 222]+0.032*[# 276]+0.026*[# 290]+0.026*[# 329]+
          +0.016*[# 235]+0.016*[# 313]+0.016*[# 339]+0.014*[# 289]+0.014*[# 328]+
          +0.012*[# 342]+0.012*[# 237]+0.012*[# 315]+0.012*[# 238]+0.012*[# 316]+
          +0.011*[# 341]+0.010*[# 274]+0.010*[# 287]+0.010*[# 326]+0.009*[# 251]+
          +0.008*[# 263]+0.008*[# 302]+0.008*[# 277]+0.006*[# 264]+0.006*[# 303]+
          +0.006*[# 250]+0.005*[# 338]+0.004*[# 248]+0.004*[# 261]+0.004*[# 300]+
          +0.004*[# 273]+0.004*[# 233]+0.004*[# 311]+0.004*[# 122]+0.004*[# 134]+
          +0.004*[# 138]+0.004*[# 194]+0.004*[# 206]+0.004*[# 210]+0.004*[# 285]+
          +0.004*[# 324]+0.003*[# 234]+0.003*[# 312]+0.002*[# 246]+0.002*[# 286]+
          +0.002*[# 325]+0.002*[# 226]+0.002*[# 304]+0.002*[# 330]+0.002*[# 337]+
          +0.001*[# 120]+0.002*[# 192]+0.002*[# 260]+0.002*[# 299]+0.001*[# 129]+
          +0.001*[# 131]+0.001*[# 143]+0.001*[# 147]+0.001*[# 272]+0.001*[# 153]+
          +0.001*[# 201]+0.001*[# 203]+0.001*[# 215]+0.001*[# 219]+0.001*[# 225]+
    |psi|^2 = 0.999
==== e(  96) =    -2.95110 eV ==== 
     psi = 0.057*[# 118]+0.057*[# 126]+0.057*[# 150]+0.057*[# 190]+0.057*[# 198]+
          +0.057*[# 222]+0.036*[# 122]+0.036*[# 134]+0.036*[# 138]+0.037*[# 194]+
          +0.037*[# 206]+0.037*[# 210]+0.023*[# 341]+0.021*[# 238]+0.021*[# 316]+
          +0.020*[# 251]+0.018*[# 237]+0.018*[# 315]+0.017*[# 263]+0.017*[# 302]+
          +0.016*[# 342]+0.012*[# 248]+0.012*[# 261]+0.012*[# 300]+0.012*[# 235]+
          +0.012*[# 313]+0.012*[# 339]+0.011*[# 264]+0.011*[# 303]+0.008*[# 250]+
          +0.007*[# 277]+0.006*[# 274]+0.006*[# 287]+0.006*[# 289]+0.006*[# 326]+
          +0.006*[# 328]+0.004*[# 290]+0.004*[# 329]+0.004*[# 246]+0.004*[# 260]+
          +0.004*[# 299]+0.004*[# 259]+0.004*[# 276]+0.004*[# 298]+0.003*[# 247]+
          +0.003*[# 338]+0.003*[# 130]+0.003*[# 142]+0.003*[# 146]+0.003*[# 202]+
          +0.003*[# 214]+0.003*[# 218]+0.003*[# 233]+0.003*[# 311]+0.002*[# 272]+
          +0.002*[# 234]+0.002*[# 312]+0.002*[# 286]+0.002*[# 325]+0.002*[# 337]+
          +0.001*[# 239]+0.001*[# 252]+0.001*[# 291]+0.001*[# 119]+0.001*[# 127]+
          +0.001*[# 151]+0.001*[# 191]+0.001*[# 199]+0.001*[# 223]+0.001*[# 226]+
          +0.001*[# 304]+0.001*[# 330]+0.001*[# 121]+0.001*[# 140]+0.001*[# 193]+
          +0.001*[# 212]+
    |psi|^2 = 0.999
==== e(  97) =    -2.81566 eV ==== 
     psi = 0.045*[# 236]+0.045*[# 249]+0.045*[# 262]+0.045*[# 275]+0.045*[# 288]+
          +0.045*[# 301]+0.045*[# 314]+0.045*[# 327]+0.045*[# 340]+0.032*[# 122]+
          +0.032*[# 130]+0.032*[# 134]+0.032*[# 138]+0.032*[# 142]+0.032*[# 146]+
          +0.032*[# 194]+0.032*[# 118]+0.032*[# 126]+0.032*[# 150]+0.032*[# 190]+
          +0.032*[# 198]+0.032*[# 202]+0.032*[# 206]+0.032*[# 210]+0.032*[# 214]+
          +0.032*[# 218]+0.032*[# 222]+0.001*[# 227]+0.001*[# 240]+0.001*[# 253]+
          +0.001*[# 266]+0.001*[# 279]+0.001*[# 292]+0.001*[# 305]+0.001*[# 318]+
          +0.001*[# 331]+
    |psi|^2 = 0.999
==== e(  98) =    -2.37888 eV ==== 
     psi = 0.037*[#  82]+0.037*[#  86]+0.037*[#  90]+0.037*[# 102]+0.037*[# 106]+
          +0.037*[# 114]+0.037*[# 166]+0.037*[# 170]+0.037*[# 182]+0.036*[#  94]+
          +0.036*[#  98]+0.036*[# 110]+0.036*[# 154]+0.037*[# 158]+0.037*[# 162]+
          +0.037*[# 174]+0.036*[# 178]+0.036*[# 186]+0.016*[#   3]+0.016*[#   4]+
          +0.016*[#  12]+0.016*[#  13]+0.016*[#  21]+0.016*[#  22]+0.016*[#  30]+
          +0.016*[#  31]+0.016*[#  39]+0.016*[#  40]+0.016*[#  48]+0.016*[#  49]+
          +0.016*[#  57]+0.016*[#  58]+0.016*[#  66]+0.016*[#  67]+0.016*[#  75]+
          +0.016*[#  76]+0.002*[#  83]+0.002*[#  87]+0.002*[#  91]+0.002*[#  95]+
          +0.002*[#  99]+0.002*[# 103]+0.002*[# 107]+0.002*[# 111]+0.002*[# 115]+
          +0.002*[# 155]+0.002*[# 159]+0.002*[# 163]+0.002*[# 167]+0.002*[# 171]+
          +0.002*[# 175]+0.002*[# 179]+0.002*[# 183]+0.002*[# 187]+0.001*[#   8]+
          +0.001*[#   9]+0.001*[#  17]+0.001*[#  18]+0.001*[#  26]+0.001*[#  27]+
          +0.001*[#  35]+0.001*[#  36]+0.001*[#  44]+0.001*[#  45]+0.001*[#  53]+
          +0.001*[#  54]+0.001*[#  62]+0.001*[#  63]+0.001*[#  71]+0.001*[#  72]+
          +0.001*[#  80]+0.001*[#  81]+
    |psi|^2 = 0.999
==== e(  99) =    -2.37887 eV ==== 
     psi = 0.037*[#  82]+0.037*[#  86]+0.037*[#  90]+0.036*[#  94]+0.036*[#  98]+
          +0.037*[# 102]+0.037*[# 106]+0.036*[# 110]+0.037*[# 114]+0.037*[# 154]+
          +0.037*[# 158]+0.037*[# 162]+0.037*[# 166]+0.037*[# 170]+0.037*[# 174]+
          +0.037*[# 178]+0.037*[# 182]+0.037*[# 186]+0.016*[#   3]+0.016*[#   4]+
          +0.016*[#  12]+0.016*[#  13]+0.016*[#  21]+0.016*[#  22]+0.016*[#  30]+
          +0.016*[#  31]+0.016*[#  39]+0.016*[#  40]+0.016*[#  48]+0.016*[#  49]+
          +0.016*[#  57]+0.016*[#  58]+0.016*[#  66]+0.016*[#  67]+0.016*[#  75]+
          +0.016*[#  76]+0.002*[#  83]+0.002*[#  87]+0.002*[#  91]+0.002*[#  95]+
          +0.002*[#  99]+0.002*[# 103]+0.002*[# 107]+0.002*[# 111]+0.002*[# 115]+
          +0.002*[# 155]+0.002*[# 159]+0.002*[# 163]+0.002*[# 167]+0.002*[# 171]+
          +0.002*[# 175]+0.002*[# 179]+0.002*[# 183]+0.002*[# 187]+0.001*[#   8]+
          +0.001*[#   9]+0.001*[#  17]+0.001*[#  18]+0.001*[#  26]+0.001*[#  27]+
          +0.001*[#  35]+0.001*[#  36]+0.001*[#  44]+0.001*[#  45]+0.001*[#  53]+
          +0.001*[#  54]+0.001*[#  62]+0.001*[#  63]+0.001*[#  71]+0.001*[#  72]+
          +0.001*[#  80]+0.001*[#  81]+
    |psi|^2 = 0.999
==== e( 100) =    -2.19744 eV ==== 
     psi = 0.072*[# 130]+0.072*[# 142]+0.072*[# 146]+0.072*[# 202]+0.072*[# 214]+
          +0.072*[# 218]+0.032*[# 122]+0.032*[# 134]+0.032*[# 138]+0.032*[# 194]+
          +0.032*[# 206]+0.032*[# 210]+0.018*[# 275]+0.018*[# 288]+0.018*[# 327]+
          +0.014*[# 270]+0.013*[# 284]+0.013*[# 323]+0.012*[# 236]+0.012*[# 314]+
          +0.012*[# 340]+0.012*[# 283]+0.012*[# 322]+0.011*[# 271]+0.009*[# 336]+
          +0.009*[# 118]+0.009*[# 126]+0.009*[# 150]+0.008*[# 190]+0.008*[# 198]+
          +0.008*[# 222]+0.008*[# 249]+0.008*[# 262]+0.008*[# 301]+0.007*[# 231]+
          +0.007*[# 309]+0.006*[# 244]+0.006*[# 258]+0.006*[# 297]+0.005*[# 257]+
          +0.005*[# 296]+0.004*[# 245]+0.003*[# 232]+0.003*[# 310]+0.003*[#  94]+
          +0.003*[#  98]+0.003*[# 110]+0.003*[# 166]+0.003*[# 170]+0.003*[# 182]+
          +0.003*[#  29]+0.003*[#  56]+0.003*[#  65]+0.002*[#  82]+0.002*[# 106]+
          +0.002*[# 114]+0.002*[# 154]+0.002*[# 178]+0.002*[# 186]+0.001*[#  86]+
          +0.001*[#  90]+0.001*[# 102]+0.001*[# 158]+0.001*[# 162]+0.001*[# 174]+
          +0.001*[# 335]+0.001*[#  11]+0.001*[#  38]+0.001*[#  47]+
    |psi|^2 = 1.000
==== e( 101) =    -2.19732 eV ==== 
     psi = 0.070*[# 122]+0.070*[# 134]+0.070*[# 138]+0.070*[# 194]+0.070*[# 206]+
          +0.070*[# 210]+0.036*[# 118]+0.036*[# 126]+0.036*[# 150]+0.036*[# 190]+
          +0.036*[# 198]+0.036*[# 222]+0.020*[# 249]+0.020*[# 262]+0.020*[# 301]+
          +0.016*[# 244]+0.014*[# 258]+0.014*[# 297]+0.013*[# 275]+0.013*[# 288]+
          +0.013*[# 327]+0.010*[# 257]+0.010*[# 296]+0.009*[# 335]+0.008*[# 271]+
          +0.008*[# 232]+0.008*[# 310]+0.008*[# 245]+0.006*[# 283]+0.006*[# 322]+
          +0.006*[# 130]+0.006*[# 142]+0.006*[# 146]+0.006*[# 202]+0.006*[# 214]+
          +0.006*[# 218]+0.006*[# 236]+0.006*[# 314]+0.006*[# 340]+0.005*[# 231]+
          +0.005*[# 309]+0.004*[# 336]+0.003*[#  86]+0.003*[#  90]+0.003*[# 102]+
          +0.003*[# 158]+0.003*[# 162]+0.003*[# 174]+0.003*[# 284]+0.003*[# 323]+
          +0.003*[#  11]+0.003*[#  38]+0.003*[#  47]+0.002*[#  94]+0.002*[#  98]+
          +0.002*[# 110]+0.002*[# 166]+0.002*[# 170]+0.002*[# 182]+0.001*[#   2]+
          +0.001*[#  20]+0.001*[#  74]+
    |psi|^2 = 1.000
==== e( 102) =    -2.19707 eV ==== 
     psi = 0.071*[# 122]+0.071*[# 134]+0.071*[# 138]+0.071*[# 194]+0.071*[# 206]+
          +0.071*[# 210]+0.034*[# 130]+0.034*[# 142]+0.034*[# 146]+0.034*[# 202]+
          +0.034*[# 214]+0.034*[# 218]+0.016*[# 249]+0.016*[# 262]+0.016*[# 301]+
          +0.016*[# 275]+0.016*[# 288]+0.016*[# 327]+0.013*[# 244]+0.013*[# 271]+
          +0.012*[# 258]+0.012*[# 297]+0.011*[# 283]+0.011*[# 322]+0.009*[# 257]+
          +0.009*[# 296]+0.008*[# 245]+0.007*[# 284]+0.007*[# 323]+0.007*[# 118]+
          +0.007*[# 126]+0.007*[# 150]+0.007*[# 190]+0.007*[# 198]+0.007*[# 222]+
          +0.007*[# 236]+0.007*[# 314]+0.007*[# 340]+0.006*[# 270]+0.004*[# 336]+
          +0.003*[# 231]+0.003*[# 309]+0.003*[#  86]+0.003*[#  90]+0.003*[#  94]+
          +0.003*[#  98]+0.003*[# 102]+0.003*[# 110]+0.003*[# 158]+0.003*[# 162]+
          +0.003*[# 166]+0.003*[# 170]+0.003*[# 174]+0.003*[# 182]+0.002*[#  11]+
          +0.002*[#  38]+0.002*[#  47]+0.002*[# 232]+0.002*[# 310]+0.002*[# 335]+
          +0.001*[#  29]+0.001*[#  56]+0.001*[#  65]+0.001*[#  82]+0.001*[# 106]+
          +0.001*[# 114]+0.001*[# 154]+0.001*[# 178]+0.001*[# 186]+
    |psi|^2 = 1.000
==== e( 103) =    -2.19672 eV ==== 
     psi = 0.068*[# 118]+0.068*[# 126]+0.068*[# 150]+0.067*[# 190]+0.067*[# 198]+
          +0.067*[# 222]+0.041*[# 130]+0.041*[# 142]+0.041*[# 146]+0.041*[# 202]+
          +0.041*[# 214]+0.041*[# 218]+0.019*[# 236]+0.019*[# 314]+0.019*[# 340]+
          +0.013*[# 336]+0.013*[# 231]+0.013*[# 309]+0.012*[# 232]+0.012*[# 310]+
          +0.012*[# 335]+0.011*[# 275]+0.011*[# 288]+0.011*[# 327]+0.010*[# 249]+
          +0.010*[# 262]+0.010*[# 301]+0.008*[# 245]+0.008*[# 270]+0.007*[# 284]+
          +0.007*[# 323]+0.006*[# 257]+0.006*[# 296]+0.005*[# 283]+0.005*[# 322]+
          +0.004*[# 271]+0.004*[# 122]+0.004*[# 134]+0.004*[# 138]+0.004*[# 194]+
          +0.004*[# 206]+0.004*[# 210]+0.003*[#  82]+0.003*[# 106]+0.003*[# 114]+
          +0.003*[# 154]+0.003*[# 178]+0.003*[# 186]+0.002*[#   2]+0.002*[#  20]+
          +0.002*[#  74]+0.002*[# 258]+0.002*[# 297]+0.002*[#  94]+0.002*[#  98]+
          +0.002*[# 110]+0.002*[# 166]+0.002*[# 170]+0.002*[# 182]+0.002*[#  86]+
          +0.002*[#  90]+0.002*[# 102]+0.002*[# 158]+0.002*[# 162]+0.002*[# 174]+
          +0.001*[#  29]+0.001*[#  56]+0.001*[#  65]+
    |psi|^2 = 1.000
==== e( 104) =    -2.19655 eV ==== 
     psi = 0.069*[# 130]+0.069*[# 142]+0.069*[# 146]+0.069*[# 202]+0.069*[# 214]+
          +0.069*[# 218]+0.039*[# 118]+0.039*[# 126]+0.039*[# 150]+0.039*[# 190]+
          +0.039*[# 198]+0.039*[# 222]+0.021*[# 236]+0.021*[# 314]+0.021*[# 340]+
          +0.017*[# 270]+0.014*[# 284]+0.014*[# 323]+0.013*[# 275]+0.013*[# 288]+
          +0.013*[# 327]+0.009*[# 336]+0.009*[# 231]+0.009*[# 309]+0.008*[# 232]+
          +0.008*[# 310]+0.008*[# 335]+0.007*[# 283]+0.007*[# 322]+0.006*[# 249]+
          +0.006*[# 262]+0.006*[# 301]+0.006*[# 245]+0.005*[# 257]+0.005*[# 296]+
          +0.004*[# 122]+0.004*[# 134]+0.004*[# 138]+0.004*[# 194]+0.004*[# 206]+
          +0.004*[# 210]+0.004*[# 271]+0.003*[#  82]+0.003*[# 106]+0.003*[# 114]+
          +0.003*[# 154]+0.003*[# 178]+0.003*[# 186]+0.002*[#  29]+0.002*[#  56]+
[...]
          +0.003*[# 297]+0.003*[# 140]+0.003*[# 212]+0.003*[# 271]+0.002*[# 125]+
          +0.002*[# 137]+0.002*[# 197]+0.002*[# 209]+0.002*[# 283]+0.002*[# 322]+
          +0.002*[# 124]+0.002*[# 136]+0.002*[# 196]+0.002*[# 208]+0.002*[# 257]+
          +0.002*[# 284]+0.002*[# 296]+0.002*[# 323]+0.002*[#  30]+0.002*[#  57]+
          +0.002*[#  67]+0.002*[# 131]+0.002*[# 141]+0.002*[# 143]+0.002*[# 147]+
          +0.002*[# 203]+0.002*[# 213]+0.002*[# 215]+0.002*[# 219]+0.002*[# 270]+
          +0.001*[#  31]+0.001*[#  58]+0.001*[# 245]+0.001*[#  66]+0.001*[# 121]+
          +0.001*[# 128]+0.001*[# 152]+0.001*[# 193]+0.001*[# 200]+0.001*[# 224]+
    |psi|^2 = 0.454
==== e( 340) =    19.99604 eV ==== 
     psi = 0.017*[#   2]+0.017*[#  20]+0.017*[#  74]+0.010*[#  29]+0.010*[#  56]+
          +0.010*[#  65]+0.008*[# 276]+0.007*[# 290]+0.007*[# 329]+0.007*[#  11]+
          +0.007*[#  38]+0.007*[#  47]+0.007*[# 289]+0.007*[# 328]+0.006*[# 277]+
          +0.006*[# 342]+0.005*[# 237]+0.005*[# 315]+0.005*[# 248]+0.005*[# 261]+
          +0.005*[# 300]+0.004*[# 250]+0.004*[# 264]+0.004*[# 303]+0.003*[# 117]+
          +0.003*[# 189]+0.003*[# 238]+0.003*[# 316]+0.003*[#  84]+0.003*[# 108]+
          +0.003*[# 156]+0.003*[# 180]+0.003*[# 263]+0.003*[# 302]+0.003*[# 251]+
          +0.003*[#  85]+0.003*[# 109]+0.003*[# 157]+0.003*[# 181]+0.003*[# 341]+
          +0.002*[# 116]+0.002*[# 188]+0.002*[# 274]+0.002*[# 287]+0.002*[# 326]+
          +0.002*[# 235]+0.002*[# 313]+0.002*[# 339]+0.002*[#  88]+0.002*[#  96]+
          +0.002*[# 160]+0.002*[# 168]+0.002*[#  93]+0.002*[# 101]+0.002*[# 105]+
          +0.002*[# 113]+0.002*[# 165]+0.002*[# 173]+0.002*[# 177]+0.002*[# 185]+
          +0.001*[#  92]+0.001*[#  89]+0.001*[# 100]+0.001*[# 104]+0.001*[# 112]+
          +0.001*[# 164]+0.001*[# 161]+0.001*[# 172]+0.001*[# 176]+0.001*[# 184]+
          +0.001*[#  97]+0.001*[# 169]+0.001*[# 233]+0.001*[# 311]+0.001*[# 338]+
    |psi|^2 = 0.322
==== e( 341) =    19.99608 eV ==== 
     psi = 0.020*[#  29]+0.020*[#  56]+0.020*[#  65]+0.009*[# 250]+0.009*[# 264]+
          +0.009*[# 303]+0.008*[#   2]+0.008*[#  20]+0.008*[#  74]+0.007*[# 277]+
          +0.007*[# 263]+0.007*[# 302]+0.006*[#  11]+0.006*[#  38]+0.006*[#  47]+
          +0.006*[# 289]+0.006*[# 328]+0.006*[# 251]+0.005*[# 235]+0.005*[# 313]+
          +0.005*[# 339]+0.004*[#  97]+0.004*[# 169]+0.004*[# 290]+0.004*[# 329]+
          +0.004*[# 100]+0.004*[# 112]+0.004*[# 172]+0.004*[# 184]+0.003*[# 101]+
          +0.003*[# 113]+0.003*[# 173]+0.003*[# 185]+0.003*[# 248]+0.003*[# 261]+
          +0.003*[# 276]+0.003*[# 300]+0.003*[#  96]+0.003*[# 168]+0.002*[# 238]+
          +0.002*[# 316]+0.002*[# 341]+0.002*[#  84]+0.002*[#  85]+0.002*[# 108]+
          +0.002*[# 109]+0.002*[# 116]+0.002*[# 157]+0.002*[# 181]+0.002*[# 188]+
          +0.002*[# 237]+0.002*[# 315]+0.002*[# 117]+0.002*[# 156]+0.002*[# 180]+
          +0.002*[# 189]+0.002*[# 342]+0.002*[#  88]+0.002*[# 160]+0.001*[# 273]+
          +0.001*[#  93]+0.001*[# 105]+0.001*[# 165]+0.001*[# 177]+0.001*[# 285]+
          +0.001*[# 324]+0.001*[# 274]+
    |psi|^2 = 0.322
==== e( 342) =    19.99611 eV ==== 
     psi = 0.021*[#  11]+0.021*[#  38]+0.021*[#  47]+0.010*[# 341]+0.009*[#   2]+
          +0.009*[#  20]+0.009*[#  74]+0.009*[# 238]+0.009*[# 316]+0.008*[# 237]+
          +0.008*[# 315]+0.007*[# 342]+0.006*[# 251]+0.006*[# 274]+0.006*[# 287]+
          +0.006*[# 326]+0.005*[# 263]+0.005*[# 302]+0.004*[#  89]+0.004*[# 161]+
          +0.004*[#  29]+0.004*[#  56]+0.004*[#  65]+0.004*[#  92]+0.004*[# 104]+
          +0.004*[# 164]+0.004*[# 176]+0.004*[# 276]+0.003*[# 290]+0.003*[# 329]+
          +0.003*[#  93]+0.003*[# 105]+0.003*[# 165]+0.003*[# 177]+0.003*[#  88]+
          +0.003*[# 160]+0.002*[# 264]+0.002*[# 303]+0.002*[# 289]+0.002*[# 328]+
          +0.002*[# 116]+0.002*[# 188]+0.002*[# 235]+0.002*[# 313]+0.002*[# 339]+
          +0.002*[#  96]+0.002*[# 168]+0.002*[# 248]+0.002*[# 261]+0.002*[# 300]+
          +0.001*[#  85]+0.001*[# 109]+0.001*[# 157]+0.001*[# 181]+0.002*[# 247]+
          +0.001*[# 101]+0.001*[# 113]+0.001*[# 277]+0.001*[# 173]+0.001*[# 185]+
          +0.001*[# 259]+0.001*[# 298]+0.001*[#  84]+
    |psi|^2 = 0.322

Lowdin Charges: 

     Atom #   1: total charge =  13.4677, s =  1.1401, 
     Atom #   1: total charge =  13.4677, p =  2.3366, pz=  0.7656, px=  0.7855, py=  0.7855, 
     Atom #   1: total charge =  13.4677, d =  9.9909, dz2=  1.9982, dxz=  1.9988, dyz=  1.9988, dx2-y2=  1.9976, dxy=  1.9976, 
     Atom #   2: total charge =  13.4676, s =  1.1401, 
     Atom #   2: total charge =  13.4676, p =  2.3366, pz=  0.7656, px=  0.7855, py=  0.7855, 
     Atom #   2: total charge =  13.4676, d =  9.9909, dz2=  1.9982, dxz=  1.9988, dyz=  1.9988, dx2-y2=  1.9976, dxy=  1.9976, 
     Atom #   3: total charge =  13.4677, s =  1.1401, 
     Atom #   3: total charge =  13.4677, p =  2.3366, pz=  0.7656, px=  0.7855, py=  0.7855, 
     Atom #   3: total charge =  13.4677, d =  9.9909, dz2=  1.9982, dxz=  1.9988, dyz=  1.9988, dx2-y2=  1.9976, dxy=  1.9976, 
     Atom #   4: total charge =  13.4677, s =  1.1401, 
     Atom #   4: total charge =  13.4677, p =  2.3366, pz=  0.7656, px=  0.7855, py=  0.7855, 
     Atom #   4: total charge =  13.4677, d =  9.9909, dz2=  1.9982, dxz=  1.9988, dyz=  1.9988, dx2-y2=  1.9976, dxy=  1.9976, 
     Atom #   5: total charge =  13.4676, s =  1.1401, 
     Atom #   5: total charge =  13.4676, p =  2.3366, pz=  0.7656, px=  0.7855, py=  0.7855, 
     Atom #   5: total charge =  13.4676, d =  9.9909, dz2=  1.9982, dxz=  1.9988, dyz=  1.9988, dx2-y2=  1.9976, dxy=  1.9976, 
     Atom #   6: total charge =  13.4676, s =  1.1401, 
     Atom #   6: total charge =  13.4676, p =  2.3366, pz=  0.7656, px=  0.7855, py=  0.7855, 
     Atom #   6: total charge =  13.4676, d =  9.9909, dz2=  1.9982, dxz=  1.9988, dyz=  1.9988, dx2-y2=  1.9976, dxy=  1.9976, 
     Atom #   7: total charge =  13.4677, s =  1.1401, 
     Atom #   7: total charge =  13.4677, p =  2.3366, pz=  0.7656, px=  0.7855, py=  0.7855, 
     Atom #   7: total charge =  13.4677, d =  9.9909, dz2=  1.9982, dxz=  1.9988, dyz=  1.9988, dx2-y2=  1.9976, dxy=  1.9976, 
     Atom #   8: total charge =  13.4677, s =  1.1401, 
     Atom #   8: total charge =  13.4677, p =  2.3366, pz=  0.7656, px=  0.7855, py=  0.7855, 
     Atom #   8: total charge =  13.4677, d =  9.9909, dz2=  1.9982, dxz=  1.9988, dyz=  1.9988, dx2-y2=  1.9976, dxy=  1.9976, 
     Atom #   9: total charge =  13.4677, s =  1.1401, 
     Atom #   9: total charge =  13.4677, p =  2.3366, pz=  0.7656, px=  0.7855, py=  0.7855, 
     Atom #   9: total charge =  13.4677, d =  9.9909, dz2=  1.9982, dxz=  1.9988, dyz=  1.9988, dx2-y2=  1.9976, dxy=  1.9976, 
     Atom #  10: total charge =   6.1510, s =  1.7545, 
     Atom #  10: total charge =   6.1510, p =  4.3964, pz=  1.5783, px=  1.4091, py=  1.4091, 
     Atom #  10: total charge =   6.1510, d =  0.0000, dz2=  0.0000, dxz=  0.0000, dyz=  0.0000, dx2-y2=  0.0000, dxy=  0.0000, 
     Atom #  11: total charge =   6.1510, s =  1.7545, 
     Atom #  11: total charge =   6.1510, p =  4.3965, pz=  1.5783, px=  1.4091, py=  1.4091, 
     Atom #  11: total charge =   6.1510, d =  0.0000, dz2=  0.0000, dxz=  0.0000, dyz=  0.0000, dx2-y2=  0.0000, dxy=  0.0000, 
     Atom #  12: total charge =   6.1510, s =  1.7545, 
     Atom #  12: total charge =   6.1510, p =  4.3965, pz=  1.5783, px=  1.4091, py=  1.4091, 
     Atom #  12: total charge =   6.1510, d =  0.0000, dz2=  0.0000, dxz=  0.0000, dyz=  0.0000, dx2-y2=  0.0000, dxy=  0.0000, 
     Atom #  13: total charge =   6.1507, s =  1.7545, 
     Atom #  13: total charge =   6.1507, p =  4.3962, pz=  1.5782, px=  1.4090, py=  1.4090, 
     Atom #  13: total charge =   6.1507, d =  0.0000, dz2=  0.0000, dxz=  0.0000, dyz=  0.0000, dx2-y2=  0.0000, dxy=  0.0000, 
     Atom #  14: total charge =   6.1507, s =  1.7545, 
     Atom #  14: total charge =   6.1507, p =  4.3962, pz=  1.5782, px=  1.4090, py=  1.4090, 
     Atom #  14: total charge =   6.1507, d =  0.0000, dz2=  0.0000, dxz=  0.0000, dyz=  0.0000, dx2-y2=  0.0000, dxy=  0.0000, 
     Atom #  15: total charge =   6.1510, s =  1.7545, 
     Atom #  15: total charge =   6.1510, p =  4.3965, pz=  1.5783, px=  1.4091, py=  1.4091, 
     Atom #  15: total charge =   6.1510, d =  0.0000, dz2=  0.0000, dxz=  0.0000, dyz=  0.0000, dx2-y2=  0.0000, dxy=  0.0000, 
     Atom #  16: total charge =   6.1510, s =  1.7545, 
     Atom #  16: total charge =   6.1510, p =  4.3964, pz=  1.5783, px=  1.4091, py=  1.4091, 
     Atom #  16: total charge =   6.1510, d =  0.0000, dz2=  0.0000, dxz=  0.0000, dyz=  0.0000, dx2-y2=  0.0000, dxy=  0.0000, 
     Atom #  17: total charge =   6.1507, s =  1.7545, 
     Atom #  17: total charge =   6.1507, p =  4.3962, pz=  1.5782, px=  1.4090, py=  1.4090, 
     Atom #  17: total charge =   6.1507, d =  0.0000, dz2=  0.0000, dxz=  0.0000, dyz=  0.0000, dx2-y2=  0.0000, dxy=  0.0000, 
     Atom #  18: total charge =   6.1510, s =  1.7545, 
     Atom #  18: total charge =   6.1510, p =  4.3964, pz=  1.5783, px=  1.4091, py=  1.4091, 
     Atom #  18: total charge =   6.1510, d =  0.0000, dz2=  0.0000, dxz=  0.0000, dyz=  0.0000, dx2-y2=  0.0000, dxy=  0.0000, 
     Atom #  19: total charge =   5.6217, s =  1.5540, 
     Atom #  19: total charge =   5.6217, p =  4.0677, pz=  1.5022, px=  1.2828, py=  1.2827, 
     Atom #  19: total charge =   5.6217, d =  0.0000, dz2=  0.0000, dxz=  0.0000, dyz=  0.0000, dx2-y2=  0.0000, dxy=  0.0000, 
     Atom #  20: total charge =   5.6217, s =  1.5540, 
     Atom #  20: total charge =   5.6217, p =  4.0677, pz=  1.5022, px=  1.2827, py=  1.2827, 
     Atom #  20: total charge =   5.6217, d =  0.0000, dz2=  0.0000, dxz=  0.0000, dyz=  0.0000, dx2-y2=  0.0000, dxy=  0.0000, 
     Atom #  21: total charge =   5.6217, s =  1.5540, 
     Atom #  21: total charge =   5.6217, p =  4.0677, pz=  1.5022, px=  1.2827, py=  1.2828, 
     Atom #  21: total charge =   5.6217, d =  0.0000, dz2=  0.0000, dxz=  0.0000, dyz=  0.0000, dx2-y2=  0.0000, dxy=  0.0000, 
     Atom #  22: total charge =   5.6217, s =  1.5540, 
     Atom #  22: total charge =   5.6217, p =  4.0677, pz=  1.5022, px=  1.2827, py=  1.2827, 
     Atom #  22: total charge =   5.6217, d =  0.0000, dz2=  0.0000, dxz=  0.0000, dyz=  0.0000, dx2-y2=  0.0000, dxy=  0.0000, 
     Atom #  23: total charge =   5.6217, s =  1.5540, 
     Atom #  23: total charge =   5.6217, p =  4.0677, pz=  1.5022, px=  1.2827, py=  1.2827, 
     Atom #  23: total charge =   5.6217, d =  0.0000, dz2=  0.0000, dxz=  0.0000, dyz=  0.0000, dx2-y2=  0.0000, dxy=  0.0000, 
     Atom #  24: total charge =   5.6217, s =  1.5540, 
     Atom #  24: total charge =   5.6217, p =  4.0677, pz=  1.5022, px=  1.2827, py=  1.2827, 
     Atom #  24: total charge =   5.6217, d =  0.0000, dz2=  0.0000, dxz=  0.0000, dyz=  0.0000, dx2-y2=  0.0000, dxy=  0.0000, 
     Atom #  25: total charge =   5.6217, s =  1.5540, 
     Atom #  25: total charge =   5.6217, p =  4.0677, pz=  1.5022, px=  1.2827, py=  1.2827, 
     Atom #  25: total charge =   5.6217, d =  0.0000, dz2=  0.0000, dxz=  0.0000, dyz=  0.0000, dx2-y2=  0.0000, dxy=  0.0000, 
     Atom #  26: total charge =   5.6217, s =  1.5540, 
     Atom #  26: total charge =   5.6217, p =  4.0677, pz=  1.5022, px=  1.2827, py=  1.2828, 
     Atom #  26: total charge =   5.6217, d =  0.0000, dz2=  0.0000, dxz=  0.0000, dyz=  0.0000, dx2-y2=  0.0000, dxy=  0.0000, 
     Atom #  27: total charge =   5.6217, s =  1.5540, 
     Atom #  27: total charge =   5.6217, p =  4.0677, pz=  1.5022, px=  1.2827, py=  1.2828, 
     Atom #  27: total charge =   5.6217, d =  0.0000, dz2=  0.0000, dxz=  0.0000, dyz=  0.0000, dx2-y2=  0.0000, dxy=  0.0000, 
     Atom #  28: total charge =   6.1509, s =  1.7545, 
     Atom #  28: total charge =   6.1509, p =  4.3964, pz=  1.5783, px=  1.4091, py=  1.4091, 
     Atom #  28: total charge =   6.1509, d =  0.0000, dz2=  0.0000, dxz=  0.0000, dyz=  0.0000, dx2-y2=  0.0000, dxy=  0.0000, 
     Atom #  29: total charge =   6.1510, s =  1.7545, 
     Atom #  29: total charge =   6.1510, p =  4.3965, pz=  1.5783, px=  1.4091, py=  1.4091, 
     Atom #  29: total charge =   6.1510, d =  0.0000, dz2=  0.0000, dxz=  0.0000, dyz=  0.0000, dx2-y2=  0.0000, dxy=  0.0000, 
     Atom #  30: total charge =   6.1510, s =  1.7545, 
     Atom #  30: total charge =   6.1510, p =  4.3965, pz=  1.5783, px=  1.4091, py=  1.4091, 
     Atom #  30: total charge =   6.1510, d =  0.0000, dz2=  0.0000, dxz=  0.0000, dyz=  0.0000, dx2-y2=  0.0000, dxy=  0.0000, 
     Atom #  31: total charge =   6.1512, s =  1.7545, 
     Atom #  31: total charge =   6.1512, p =  4.3967, pz=  1.5783, px=  1.4092, py=  1.4092, 
     Atom #  31: total charge =   6.1512, d =  0.0000, dz2=  0.0000, dxz=  0.0000, dyz=  0.0000, dx2-y2=  0.0000, dxy=  0.0000, 
     Atom #  32: total charge =   6.1512, s =  1.7545, 
     Atom #  32: total charge =   6.1512, p =  4.3967, pz=  1.5783, px=  1.4092, py=  1.4092, 
     Atom #  32: total charge =   6.1512, d =  0.0000, dz2=  0.0000, dxz=  0.0000, dyz=  0.0000, dx2-y2=  0.0000, dxy=  0.0000, 
     Atom #  33: total charge =   6.1510, s =  1.7545, 
     Atom #  33: total charge =   6.1510, p =  4.3965, pz=  1.5783, px=  1.4091, py=  1.4091, 
     Atom #  33: total charge =   6.1510, d =  0.0000, dz2=  0.0000, dxz=  0.0000, dyz=  0.0000, dx2-y2=  0.0000, dxy=  0.0000, 
     Atom #  34: total charge =   6.1509, s =  1.7545, 
     Atom #  34: total charge =   6.1509, p =  4.3964, pz=  1.5783, px=  1.4091, py=  1.4091, 
     Atom #  34: total charge =   6.1509, d =  0.0000, dz2=  0.0000, dxz=  0.0000, dyz=  0.0000, dx2-y2=  0.0000, dxy=  0.0000, 
     Atom #  35: total charge =   6.1512, s =  1.7545, 
     Atom #  35: total charge =   6.1512, p =  4.3967, pz=  1.5783, px=  1.4092, py=  1.4092, 
     Atom #  35: total charge =   6.1512, d =  0.0000, dz2=  0.0000, dxz=  0.0000, dyz=  0.0000, dx2-y2=  0.0000, dxy=  0.0000, 
     Atom #  36: total charge =   6.1509, s =  1.7545, 
     Atom #  36: total charge =   6.1509, p =  4.3964, pz=  1.5783, px=  1.4091, py=  1.4091, 
     Atom #  36: total charge =   6.1509, d =  0.0000, dz2=  0.0000, dxz=  0.0000, dyz=  0.0000, dx2-y2=  0.0000, dxy=  0.0000, 
     Atom #  37: total charge =   5.6218, s =  1.5540, 
     Atom #  37: total charge =   5.6218, p =  4.0679, pz=  1.5023, px=  1.2828, py=  1.2828, 
     Atom #  37: total charge =   5.6218, d =  0.0000, dz2=  0.0000, dxz=  0.0000, dyz=  0.0000, dx2-y2=  0.0000, dxy=  0.0000, 
     Atom #  38: total charge =   5.6219, s =  1.5540, 
     Atom #  38: total charge =   5.6219, p =  4.0679, pz=  1.5023, px=  1.2828, py=  1.2828, 
     Atom #  38: total charge =   5.6219, d =  0.0000, dz2=  0.0000, dxz=  0.0000, dyz=  0.0000, dx2-y2=  0.0000, dxy=  0.0000, 
     Atom #  39: total charge =   5.6218, s =  1.5540, 
     Atom #  39: total charge =   5.6218, p =  4.0679, pz=  1.5023, px=  1.2828, py=  1.2828, 
     Atom #  39: total charge =   5.6218, d =  0.0000, dz2=  0.0000, dxz=  0.0000, dyz=  0.0000, dx2-y2=  0.0000, dxy=  0.0000, 
     Atom #  40: total charge =   5.6219, s =  1.5540, 
     Atom #  40: total charge =   5.6219, p =  4.0679, pz=  1.5023, px=  1.2828, py=  1.2828, 
     Atom #  40: total charge =   5.6219, d =  0.0000, dz2=  0.0000, dxz=  0.0000, dyz=  0.0000, dx2-y2=  0.0000, dxy=  0.0000, 
     Atom #  41: total charge =   5.6219, s =  1.5540, 
     Atom #  41: total charge =   5.6219, p =  4.0679, pz=  1.5023, px=  1.2828, py=  1.2828, 
     Atom #  41: total charge =   5.6219, d =  0.0000, dz2=  0.0000, dxz=  0.0000, dyz=  0.0000, dx2-y2=  0.0000, dxy=  0.0000, 
     Atom #  42: total charge =   5.6219, s =  1.5540, 
     Atom #  42: total charge =   5.6219, p =  4.0679, pz=  1.5023, px=  1.2828, py=  1.2828, 
     Atom #  42: total charge =   5.6219, d =  0.0000, dz2=  0.0000, dxz=  0.0000, dyz=  0.0000, dx2-y2=  0.0000, dxy=  0.0000, 
     Atom #  43: total charge =   5.6219, s =  1.5540, 
     Atom #  43: total charge =   5.6219, p =  4.0679, pz=  1.5023, px=  1.2828, py=  1.2828, 
     Atom #  43: total charge =   5.6219, d =  0.0000, dz2=  0.0000, dxz=  0.0000, dyz=  0.0000, dx2-y2=  0.0000, dxy=  0.0000, 
     Atom #  44: total charge =   5.6219, s =  1.5540, 
     Atom #  44: total charge =   5.6219, p =  4.0679, pz=  1.5023, px=  1.2828, py=  1.2829, 
     Atom #  44: total charge =   5.6219, d =  0.0000, dz2=  0.0000, dxz=  0.0000, dyz=  0.0000, dx2-y2=  0.0000, dxy=  0.0000, 
     Atom #  45: total charge =   5.6218, s =  1.5540, 
     Atom #  45: total charge =   5.6218, p =  4.0679, pz=  1.5023, px=  1.2828, py=  1.2828, 
     Atom #  45: total charge =   5.6218, d =  0.0000, dz2=  0.0000, dxz=  0.0000, dyz=  0.0000, dx2-y2=  0.0000, dxy=  0.0000, 
     Atom #  46: total charge =  14.6552, s =  2.4201, 
     Atom #  46: total charge =  14.6552, p =  7.1890, pz=  2.4134, px=  2.3878, py=  2.3878, 
     Atom #  46: total charge =  14.6552, d =  5.0461, dz2=  1.1130, dxz=  0.9613, dyz=  0.9613, dx2-y2=  1.0053, dxy=  1.0053, 
     Atom #  47: total charge =  14.6561, s =  2.4201, 
     Atom #  47: total charge =  14.6561, p =  7.1891, pz=  2.4134, px=  2.3878, py=  2.3878, 
     Atom #  47: total charge =  14.6561, d =  5.0469, dz2=  1.1132, dxz=  0.9614, dyz=  0.9614, dx2-y2=  1.0054, dxy=  1.0055, 
     Atom #  48: total charge =  14.6561, s =  2.4201, 
     Atom #  48: total charge =  14.6561, p =  7.1891, pz=  2.4134, px=  2.3878, py=  2.3878, 
     Atom #  48: total charge =  14.6561, d =  5.0469, dz2=  1.1132, dxz=  0.9614, dyz=  0.9614, dx2-y2=  1.0055, dxy=  1.0055, 
     Atom #  49: total charge =  14.6563, s =  2.4201, 
     Atom #  49: total charge =  14.6563, p =  7.1891, pz=  2.4134, px=  2.3878, py=  2.3878, 
     Atom #  49: total charge =  14.6563, d =  5.0471, dz2=  1.1133, dxz=  0.9614, dyz=  0.9614, dx2-y2=  1.0055, dxy=  1.0055, 
     Atom #  50: total charge =  14.6563, s =  2.4201, 
     Atom #  50: total charge =  14.6563, p =  7.1891, pz=  2.4134, px=  2.3878, py=  2.3878, 
     Atom #  50: total charge =  14.6563, d =  5.0471, dz2=  1.1133, dxz=  0.9614, dyz=  0.9614, dx2-y2=  1.0055, dxy=  1.0055, 
     Atom #  51: total charge =  14.6561, s =  2.4201, 
     Atom #  51: total charge =  14.6561, p =  7.1891, pz=  2.4134, px=  2.3878, py=  2.3878, 
     Atom #  51: total charge =  14.6561, d =  5.0469, dz2=  1.1132, dxz=  0.9614, dyz=  0.9614, dx2-y2=  1.0055, dxy=  1.0055, 
     Atom #  52: total charge =  14.6552, s =  2.4201, 
     Atom #  52: total charge =  14.6552, p =  7.1890, pz=  2.4134, px=  2.3878, py=  2.3878, 
     Atom #  52: total charge =  14.6552, d =  5.0461, dz2=  1.1130, dxz=  0.9613, dyz=  0.9613, dx2-y2=  1.0053, dxy=  1.0053, 
     Atom #  53: total charge =  14.6563, s =  2.4201, 
     Atom #  53: total charge =  14.6563, p =  7.1891, pz=  2.4134, px=  2.3878, py=  2.3878, 
     Atom #  53: total charge =  14.6563, d =  5.0471, dz2=  1.1133, dxz=  0.9614, dyz=  0.9614, dx2-y2=  1.0055, dxy=  1.0055, 
     Atom #  54: total charge =  14.6552, s =  2.4201, 
     Atom #  54: total charge =  14.6552, p =  7.1890, pz=  2.4134, px=  2.3878, py=  2.3878, 
     Atom #  54: total charge =  14.6552, d =  5.0461, dz2=  1.1130, dxz=  0.9613, dyz=  0.9613, dx2-y2=  1.0053, dxy=  1.0052, 
     Spilling Parameter:   0.0064

     PROJWFC      :  1m27.47s CPU     0m47.89s WALL


   This run was terminated on:  15:18:59   7May2021            

=------------------------------------------------------------------------------=
   JOB DONE.
=------------------------------------------------------------------------------=
