
     Program PWSCF v.6.1 starts on  7May2021 at 14:55:47 

     This program is part of the open-source Quantum ESPRESSO suite
     for quantum simulation of materials; please cite
         "P. Giannozzi et al., J. Phys.:Condens. Matter 21 395502 (2009);
          URL http://www.quantum-espresso.org", 
     in publications or presentations arising from this work. More details at
     http://www.quantum-espresso.org/quote

     Parallel version (MPI & OpenMP), running on      12 processor cores
     Number of MPI processes:                 4
     Threads/MPI process:                     3
     R & G space division:  proc/nbgrp/npool/nimage =       4
     Reading input from espresso.in
Warning: card &DOS ignored
Warning: card     DEGAUSS =  1.00000E-02 ignored
Warning: card     DELTAE  =  1.00000E-02 ignored
Warning: card     EMAX    =  5.00000E+01 ignored
Warning: card     EMIN    = -5.00000E+01 ignored
Warning: card     FILDOS  = "ESPRESSO.DOS" ignored
Warning: card     NGAUSS  = 0 ignored
Warning: card     OUTDIR  = "./" ignored
Warning: card     PREFIX  = "ESPRESSO" ignored
Warning: card / ignored
Warning: card &PROJWFC ignored
Warning: card     DEGAUSS =  1.00000E-02 ignored
Warning: card     DELTAE  =  1.00000E-02 ignored
Warning: card     EMAX    =  5.00000E+01 ignored
Warning: card     EMIN    = -5.00000E+01 ignored
Warning: card     FILPDOS = "ESPRESSO" ignored
Warning: card     NGAUSS  = 0 ignored
Warning: card     OUTDIR  = "./" ignored
Warning: card     PREFIX  = "ESPRESSO" ignored
Warning: card / ignored

     Current dimensions of program PWSCF are:
     Max number of different atomic species (ntypx) = 10
     Max number of k-points (npk) =  40000
     Max angular momentum in pseudopotentials (lmaxx) =  3
     Message from routine iosys:
     wrong startingpot: use default (2)

     Atomic positions and unit cell read from directory:
     ./espresso.save/

               file Sn.pbe-dn-rrkjus_psl.1.0.0.UPF: wavefunction(s)  5S 4D renormalized

     Subspace diagonalization in iterative solution of the eigenvalue problem:
     a serial algorithm will be used

     Found symmetry operation: I + ( -0.0000  0.3333  0.0000)
     This is a supercell, fractional translations are disabled

     Parallelization info
     --------------------
     sticks:   dense  smooth     PW     G-vecs:    dense   smooth      PW
     Min        2391    1066    286               264007    78232   10964
     Max        2392    1068    287               264012    78235   10967
     Sum        9565    4267   1147              1056033   312933   43863



     bravais-lattice index     =            4
     lattice parameter (alat)  =      18.0974  a.u.
     unit-cell volume          =    7170.7032 (a.u.)^3
     number of atoms/cell      =           54
     number of atomic types    =            3
     number of electrons       =       468.00
     number of Kohn-Sham states=          342
     kinetic-energy cutoff     =      47.0743  Ry
     charge density cutoff     =     423.6680  Ry
     Exchange-correlation      =  SLA  PW   PBE  PBE ( 1  4  3  4 0 0)

     celldm(1)=  18.097378  celldm(2)=   0.000000  celldm(3)=   1.396961
     celldm(4)=   0.000000  celldm(5)=   0.000000  celldm(6)=   0.000000

     crystal axes: (cart. coord. in units of alat)
               a(1) = (   1.000000   0.000000   0.000000 )  
               a(2) = (  -0.500000   0.866025   0.000000 )  
               a(3) = (   0.000000   0.000000   1.396961 )  

     reciprocal axes: (cart. coord. in units 2 pi/alat)
               b(1) = (  1.000000  0.577350 -0.000000 )  
               b(2) = (  0.000000  1.154701  0.000000 )  
               b(3) = (  0.000000 -0.000000  0.715840 )  


     PseudoPot. # 1 for Sn read from file:
     C:\Users\ROG\.burai\.pseudopot/Sn.pbe-dn-rrkjus_psl.1.0.0.UPF
     MD5 check sum: 6923576d35b7bb477f9d834f190d2db6
     Pseudo is Ultrasoft + core correction, Zval = 14.0
     Generated using "atomic" code by A. Dal Corso  v.5.1.2
     Using radial grid of 1243 points,  6 beta functions with: 
                l(1) =   0
                l(2) =   0
                l(3) =   1
                l(4) =   1
                l(5) =   2
                l(6) =   2
     Q(r) pseudized with 0 coefficients 


     PseudoPot. # 2 for Se read from file:
     C:\Users\ROG\.burai\.pseudopot/Se.pbe-n-rrkjus_psl.1.0.0.UPF
     MD5 check sum: b4fde84b927950421ac83de11f467c93
     Pseudo is Ultrasoft + core correction, Zval =  6.0
     Generated using "atomic" code by A. Dal Corso  v.5.1.2
     Using radial grid of 1211 points,  4 beta functions with: 
                l(1) =   0
                l(2) =   0
                l(3) =   1
                l(4) =   1
     Q(r) pseudized with 0 coefficients 


     PseudoPot. # 3 for W  read from file:
     C:\Users\ROG\.burai\.pseudopot/W.pbe-nsp-van.UPF
     MD5 check sum: d6466f82beb0ca8b88800d998c44bca0
     Pseudo is Ultrasoft + core correction, Zval = 14.0
     Generated by new atomic code, or converted to UPF format
     Using radial grid of  923 points,  6 beta functions with: 
                l(1) =   0
                l(2) =   0
                l(3) =   1
                l(4) =   1
                l(5) =   2
                l(6) =   2
     Q(r) pseudized with  6 coefficients,  rinner =    1.000   1.000   1.000
                                                       1.000   1.000

     atomic species   valence    mass     pseudopotential
        Sn            14.00   118.71000     Sn( 1.00)
        Se             6.00    78.96000     Se( 1.00)
        W             14.00   183.84000     W ( 1.00)

      6 Sym. Ops. (no inversion) found



   Cartesian axes

     site n.     atom                  positions (alat units)
         1           Sn  tau(   1) = (   0.0000000   0.1924498   1.0477200  )
         2           Sn  tau(   2) = (  -0.1666666   0.4811247   1.0477200  )
         3           Sn  tau(   3) = (  -0.3333331   0.7697998   1.0477200  )
         4           Sn  tau(   4) = (   0.3333331   0.1924498   1.0477200  )
         5           Sn  tau(   5) = (   0.1666666   0.4811247   1.0477200  )
         6           Sn  tau(   6) = (   0.0000000   0.7697998   1.0477200  )
         7           Sn  tau(   7) = (   0.6666664   0.1924498   1.0477200  )
         8           Sn  tau(   8) = (   0.4999998   0.4811247   1.0477200  )
         9           Sn  tau(   9) = (   0.3333331   0.7697998   1.0477200  )
        10           Se  tau(  10) = (   0.1666665   0.0962249   0.8843902  )
        11           Se  tau(  11) = (  -0.0000002   0.3848998   0.8843902  )
        12           Se  tau(  12) = (  -0.1666668   0.6735749   0.8843902  )
        13           Se  tau(  13) = (   0.4999996   0.0962249   0.8843902  )
        14           Se  tau(  14) = (   0.3333330   0.3848998   0.8843902  )
        15           Se  tau(  15) = (   0.1666665   0.6735749   0.8843902  )
        16           Se  tau(  16) = (   0.8333327   0.0962249   0.8843902  )
        17           Se  tau(  17) = (   0.6666661   0.3848998   0.8843902  )
        18           Se  tau(  18) = (   0.4999996   0.6735749   0.8843902  )
        19           Se  tau(  19) = (   0.0000000   0.1924498   0.5125698  )
        20           Se  tau(  20) = (  -0.1666666   0.4811247   0.5125698  )
        21           Se  tau(  21) = (  -0.3333331   0.7697998   0.5125698  )
        22           Se  tau(  22) = (   0.3333331   0.1924498   0.5125698  )
        23           Se  tau(  23) = (   0.1666666   0.4811247   0.5125698  )
        24           Se  tau(  24) = (   0.0000000   0.7697998   0.5125698  )
        25           Se  tau(  25) = (   0.6666664   0.1924498   0.5125698  )
        26           Se  tau(  26) = (   0.4999998   0.4811247   0.5125698  )
        27           Se  tau(  27) = (   0.3333331   0.7697998   0.5125698  )
        28           Se  tau(  28) = (   0.1666665   0.0962249   1.2110497  )
        29           Se  tau(  29) = (  -0.0000002   0.3848998   1.2110497  )
        30           Se  tau(  30) = (  -0.1666668   0.6735749   1.2110497  )
        31           Se  tau(  31) = (   0.4999996   0.0962249   1.2110497  )
        32           Se  tau(  32) = (   0.3333330   0.3848998   1.2110497  )
        33           Se  tau(  33) = (   0.1666665   0.6735749   1.2110497  )
        34           Se  tau(  34) = (   0.8333327   0.0962249   1.2110497  )
        35           Se  tau(  35) = (   0.6666661   0.3848998   1.2110497  )
        36           Se  tau(  36) = (   0.4999996   0.6735749   1.2110497  )
        37           Se  tau(  37) = (   0.0000000   0.1924498   0.1859102  )
        38           Se  tau(  38) = (  -0.1666666   0.4811247   0.1859102  )
        39           Se  tau(  39) = (  -0.3333331   0.7697998   0.1859102  )
        40           Se  tau(  40) = (   0.3333331   0.1924498   0.1859102  )
        41           Se  tau(  41) = (   0.1666666   0.4811247   0.1859102  )
        42           Se  tau(  42) = (   0.0000000   0.7697998   0.1859102  )
        43           Se  tau(  43) = (   0.6666664   0.1924498   0.1859102  )
        44           Se  tau(  44) = (   0.4999998   0.4811247   0.1859102  )
        45           Se  tau(  45) = (   0.3333331   0.7697998   0.1859102  )
        46           W   tau(  46) = (   0.1666665   0.0962249   0.3492400  )
        47           W   tau(  47) = (  -0.0000002   0.3848998   0.3492400  )
        48           W   tau(  48) = (  -0.1666668   0.6735749   0.3492400  )
        49           W   tau(  49) = (   0.4999996   0.0962249   0.3492400  )
        50           W   tau(  50) = (   0.3333330   0.3848998   0.3492400  )
        51           W   tau(  51) = (   0.1666665   0.6735749   0.3492400  )
        52           W   tau(  52) = (   0.8333327   0.0962249   0.3492400  )
        53           W   tau(  53) = (   0.6666661   0.3848998   0.3492400  )
        54           W   tau(  54) = (   0.4999996   0.6735749   0.3492400  )

     number of k points=     6  gaussian smearing, width (Ry)=  0.0100
                       cart. coord. in units 2pi/alat
        k(    1) = (   0.0000000   0.0000000   0.0000000), wk =   0.1111111
        k(    2) = (   0.0000000   0.0000000  -0.3579199), wk =   0.1111111
        k(    3) = (   0.0000000   0.3849002   0.0000000), wk =   0.6666667
        k(    4) = (   0.0000000   0.3849002  -0.3579199), wk =   0.6666667
        k(    5) = (   0.3333333   0.5773503   0.0000000), wk =   0.2222222
        k(    6) = (   0.3333333   0.5773503  -0.3579199), wk =   0.2222222

     Dense  grid:  1056033 G-vectors     FFT dimensions: ( 120, 120, 180)

     Smooth grid:   312933 G-vectors     FFT dimensions: (  80,  80, 120)

     Estimated max dynamical RAM per process >     694.25MB

     Estimated total allocated dynamical RAM >    2777.01MB

     The potential is recalculated from file :
     ./espresso.save/charge-density.dat

     Starting wfc are  342 randomized atomic wfcs

     Band Structure Calculation
     Davidson diagonalization with overlap

     ethr =  2.14E-10,  avg # of iterations = 18.8

     total cpu time spent up to now is     1331.2 secs

     End of band structure calculation

          k = 0.0000 0.0000 0.0000 ( 39091 PWs)   bands (ev):

   -62.5415 -62.5301 -62.5294 -62.5287 -62.5279 -62.5274 -62.5272 -62.5216
   -62.5213 -27.0345 -26.9987 -26.9983 -26.9964 -26.9961 -26.9956 -26.9951
   -26.9946 -26.9943 -26.9808 -26.9801 -26.9794 -26.9785 -26.9781 -26.9779
   -26.9513 -26.9510 -26.9503 -26.9503 -26.7902 -26.7900 -26.7894 -26.7889
   -26.7885 -26.7882 -26.7274 -26.7274 -11.5104 -11.5104 -11.5104 -11.5104
   -11.5103 -11.5103 -11.4424 -11.4424 -11.4155 -11.4154 -11.4154 -11.4154
   -11.4154 -11.4154 -11.3939 -11.3939 -11.3842 -11.3842 -11.3200 -11.3200
   -11.2964 -11.2412 -11.2412 -11.2205 -11.2205 -11.2204 -11.2204 -11.2204
   -11.2204 -11.1826 -11.1825 -11.1825 -11.1825 -11.1825 -11.1825 -11.1803
   -11.1803 -11.1479 -11.1478 -11.1478 -11.1478 -11.1477 -11.1477 -11.1087
   -11.1087  -6.3277  -4.6052  -4.3594  -4.3594  -4.3594  -4.3594  -4.3593
    -4.3593  -3.7965  -2.9523  -2.9522  -2.9519  -2.9516  -2.9513  -2.9511
    -2.8157  -2.3789  -2.3789  -2.1974  -2.1973  -2.1971  -2.1967  -2.1966
    -2.1963  -1.9479  -1.9479  -1.9479  -1.9478  -1.9478  -1.9478  -1.8127
    -1.8127  -1.7151  -1.7151  -0.5125  -0.5125   2.0121   2.0121   3.1963
     3.2224   3.2224   3.2224   3.2224   3.2224   3.2224   3.9173   3.9173
     4.3342   4.8234   4.8235   4.8235   4.8239   4.8240   4.8240   4.8391
     4.8391   5.1719   5.1720   5.3167   5.3167   5.4139   5.4140   5.4140
     5.4140   5.4141   5.4141   6.1327   6.1328   6.1568   6.1570   6.1570
     6.1572   6.1573   6.1574   6.3088   6.3088   6.3088   6.3089   6.3089
     6.3089   6.3205   6.3206   6.3208   6.3210   6.3212   6.3214   6.6846
     6.6846   6.9821   6.9821   7.2286   7.2286   7.3888   7.5050   7.5051
     7.9200   7.9203   7.9205   7.9209   7.9210   7.9212   8.1902   8.1902
     8.7027   8.7027   8.7827   8.7827   8.7827   8.7827   8.7827   8.7828
     8.8796   8.8796   8.8798   8.8799   8.8800   8.8801   9.4203   9.5565
     9.5565   9.6053   9.6053   9.6054   9.6058   9.6059   9.6059   9.6708
     9.6709   9.6711   9.6715   9.6717   9.6717   9.8589   9.8589   9.8590
     9.8591   9.8592   9.8593  10.7419  10.7419  10.7893  11.0571  11.0571
    11.1271  11.1271  11.1271  11.1272  11.1272  11.1272  11.2185  11.2185
    12.2988  12.2988  12.7500  12.7502  12.8113  12.8113  12.8191  12.8191
    12.8739  12.8739  12.8739  12.8739  12.8739  12.8739  13.5447  13.5449
    13.5450  13.5453  13.5454  13.5455  13.7990  13.7992  13.7995  13.7998
    13.8000  13.8001  14.0589  14.1486  14.1486  14.1487  14.1487  14.1488
    14.1488  14.2601  14.2601  14.4347  14.4347  14.8950  14.8950  14.9610
    14.9611  14.9614  14.9616  14.9618  14.9619  15.4369  15.4369  16.1366
    16.1368  16.1370  16.1373  16.1375  16.1377  16.3905  16.4720  16.4720
    16.4720  16.4721  16.4721  16.4721  16.8352  16.8352  17.0604  17.0604
    17.1682  17.1683  17.3015  17.3718  17.3718  17.3719  17.3719  17.3719
    17.3720  17.8902  17.8902  18.0693  18.1850  18.1850  18.1850  18.1851
    18.1851  18.1851  18.2919  18.2920  18.2920  18.2921  18.2921  18.2921
    18.3344  18.3345  18.3345  18.3345  18.3346  18.3346  18.4049  18.4049
    19.2924  19.2924  19.2925  19.2926  19.2927  19.2927  19.4430  19.4430
    19.6754  19.9613  20.1206  20.1207  20.4365  20.4365

          k = 0.0000 0.0000-0.3579 ( 39068 PWs)   bands (ev):

   -62.5415 -62.5301 -62.5294 -62.5287 -62.5279 -62.5274 -62.5272 -62.5216
   -62.5213 -27.0345 -26.9987 -26.9983 -26.9964 -26.9961 -26.9956 -26.9951
   -26.9946 -26.9942 -26.9808 -26.9801 -26.9794 -26.9785 -26.9781 -26.9779
   -26.9513 -26.9510 -26.9503 -26.9503 -26.7902 -26.7900 -26.7894 -26.7889
   -26.7885 -26.7882 -26.7274 -26.7274 -11.5104 -11.5104 -11.5104 -11.5104
   -11.5103 -11.5103 -11.4424 -11.4424 -11.4155 -11.4154 -11.4154 -11.4154
   -11.4154 -11.4154 -11.3939 -11.3939 -11.3842 -11.3842 -11.3200 -11.3200
   -11.2964 -11.2412 -11.2412 -11.2205 -11.2205 -11.2205 -11.2204 -11.2204
   -11.2204 -11.1826 -11.1825 -11.1825 -11.1825 -11.1825 -11.1825 -11.1803
   -11.1803 -11.1479 -11.1478 -11.1478 -11.1478 -11.1477 -11.1477 -11.1087
   -11.1087  -6.3275  -4.6091  -4.3593  -4.3593  -4.3593  -4.3592  -4.3592
    -4.3592  -3.7865  -2.9550  -2.9549  -2.9546  -2.9542  -2.9540  -2.9538
    -2.8238  -2.3789  -2.3789  -2.1834  -2.1833  -2.1830  -2.1826  -2.1825
    -2.1822  -1.9599  -1.9599  -1.9598  -1.9598  -1.9597  -1.9597  -1.8127
    -1.8127  -1.7151  -1.7151  -0.5125  -0.5125   2.0123   2.0123   3.2229
     3.2229   3.2229   3.2229   3.2230   3.2230   3.2878   3.9169   3.9169
     4.1679   4.8412   4.8412   4.8521   4.8521   4.8521   4.8526   4.8526
     4.8527   5.1811   5.1812   5.3123   5.3123   5.3767   5.3767   5.3767
     5.3768   5.3768   5.3768   6.1276   6.1276   6.2127   6.2128   6.2130
     6.2132   6.2133   6.2135   6.2444   6.2446   6.2446   6.2448   6.2449
     6.2450   6.3131   6.3132   6.3132   6.3132   6.3132   6.3132   6.6266
     6.6267   7.0000   7.0000   7.2332   7.2332   7.5739   7.5740   7.7810
     7.9198   7.9200   7.9202   7.9206   7.9207   7.9210   8.1902   8.1902
     8.6764   8.6764   8.7838   8.7838   8.7839   8.7839   8.7839   8.7839
     8.8703   9.1588   9.1589   9.1591   9.1593   9.1594   9.1596   9.4063
     9.4064   9.4065   9.4066   9.4067   9.4067   9.5565   9.5565   9.6036
     9.6037   9.6038   9.6041   9.6043   9.6043   9.8245   9.8246   9.8247
     9.8250   9.8251   9.8251  10.7019  10.7019  11.0263  11.0693  11.0693
    11.1278  11.1279  11.1279  11.1279  11.1279  11.1279  11.2187  11.2187
    12.2985  12.2985  12.7355  12.7355  12.7501  12.7503  12.8752  12.8752
    12.9124  12.9125  12.9125  12.9125  12.9125  12.9125  13.7272  13.7274
    13.7277  13.7280  13.7281  13.7283  13.8009  13.8010  13.8013  13.8016
    13.8018  13.8019  13.9935  13.9935  13.9936  13.9936  13.9936  13.9936
    14.0981  14.4097  14.4097  14.4346  14.4346  14.8953  14.8954  14.9166
    14.9167  14.9169  14.9171  14.9172  14.9173  15.2686  15.2686  16.1275
    16.1277  16.1279  16.1282  16.1283  16.1286  16.4627  16.4627  16.4627
    16.4627  16.4627  16.4628  16.5982  17.0607  17.0607  17.1355  17.1355
    17.1389  17.5219  17.5220  17.6163  17.6164  17.6165  17.6167  17.6167
    17.6168  17.6557  17.6557  17.7723  17.7724  17.7724  17.7725  17.7725
    17.7726  18.0502  18.0718  18.0718  18.1997  18.1997  18.1997  18.1998
    18.1998  18.1998  18.6276  18.6276  18.9305  18.9306  18.9306  18.9307
    18.9308  18.9308  19.1459  19.3287  19.3288  19.3288  19.3290  19.3290
    19.3291  19.6905  19.6907  19.6907  19.6908  19.6908

          k = 0.0000 0.3849 0.0000 ( 39124 PWs)   bands (ev):

   -62.5395 -62.5342 -62.5308 -62.5302 -62.5260 -62.5255 -62.5243 -62.5225
   -62.5220 -27.0715 -27.0342 -27.0341 -27.0302 -27.0302 -27.0260 -27.0041
   -26.9875 -26.9871 -26.9669 -26.9665 -26.9627 -26.9556 -26.9553 -26.9450
   -26.9448 -26.8924 -26.8923 -26.8768 -26.8236 -26.8235 -26.8071 -26.7928
   -26.7925 -26.7701 -26.7616 -26.7371 -11.5458 -11.5016 -11.5016 -11.4773
   -11.4650 -11.4650 -11.4566 -11.4518 -11.4518 -11.4485 -11.4485 -11.4374
   -11.4374 -11.4107 -11.3745 -11.3745 -11.3616 -11.3148 -11.2910 -11.2910
   -11.2787 -11.2735 -11.2588 -11.2588 -11.2445 -11.2445 -11.2322 -11.2237
   -11.2237 -11.2198 -11.2141 -11.2093 -11.2093 -11.2024 -11.1866 -11.1807
   -11.1807 -11.1537 -11.1537 -11.1186 -11.1072 -11.1072 -11.1057 -11.1024
   -11.1024  -6.0968  -5.4165  -4.7619  -4.7619  -4.3830  -3.7720  -3.6230
    -3.6230  -3.5629  -3.2661  -3.2417  -3.2417  -2.9095  -2.7873  -2.7873
    -2.7270  -2.4821  -2.4699  -2.4699  -2.3607  -2.3607  -2.2900  -2.2312
    -2.2312  -2.0059  -2.0059  -2.0012  -2.0012  -1.9496  -1.8038  -1.8037
    -1.3723  -1.3723  -1.1256  -0.7761  -0.7761   1.5667   1.9836   1.9836
     2.4073   2.4073   3.3615   3.7479   3.7950   3.7950   4.1063   4.5629
     4.5629   4.5719   4.7274   4.7274   4.8103   4.9198   4.9198   5.1058
     5.1129   5.1129   5.2162   5.2162   5.2307   5.2308   5.5070   5.5070
     5.5120   5.6543   5.6543   5.6978   5.6979   5.7966   5.8202   5.8202
     6.2849   6.2849   6.3961   6.3961   6.4187   6.4776   6.4776   6.5378
     6.6388   6.6389   6.6476   6.6477   6.8089   7.0839   7.2503   7.2503
     7.2887   7.2887   7.3571   7.3572   7.4265   7.4267   7.4392   7.4393
     7.4523   7.5762   7.5762   7.5872   7.6332   8.0399   8.0399   8.1216
     8.1216   8.1867   8.2998   8.4043   8.5243   8.6744   8.7255   8.7256
     8.8577   8.8577   8.8782   8.9009   8.9442   8.9442   8.9637   9.0670
     9.0670   9.1138   9.1138   9.2116   9.4439   9.6605   9.8209   9.8209
     9.8580   9.9677   9.9696   9.9697   9.9859   9.9957  10.1004  10.1005
    10.2369  10.2369  10.2418  10.2604  10.2604  10.2630  10.5490  10.5490
    10.6175  10.6175  10.6487  10.6487  10.6814  10.7472  10.8614  11.0581
    11.5883  11.5902  12.0770  12.2214  12.2214  12.3847  12.3847  13.1596
    13.1596  13.3252  13.3773  13.3775  13.5343  13.5724  13.5725  13.8810
    13.9206  13.9208  13.9600  14.0683  14.1219  14.1219  14.1245  14.1744
    14.1751  14.1751  14.1825  14.1825  14.2989  14.3216  14.3217  14.4037
    14.5238  14.5238  14.5989  14.7526  14.7526  14.8378  14.8399  14.8399
    14.9260  14.9677  14.9677  15.2324  15.3005  15.3095  15.3095  15.5948
    15.6615  16.1578  16.1579  16.1700  16.1701  16.1910  16.2807  16.3571
    16.5450  16.5450  16.9268  16.9268  17.0032  17.0032  17.1486  17.1486
    17.2394  17.3276  17.3276  17.3294  17.3961  17.3961  17.5128  17.7097
    17.7431  17.8149  17.8150  17.8475  17.9796  17.9797  18.0295  18.1281
    18.1281  18.3282  18.3453  18.3453  18.4116  18.4116  18.4357  18.6590
    18.7003  18.7003  18.7486  18.8946  18.8946  19.2725  19.2725  19.3236
    19.3237  19.3511  19.5310  19.6463  19.6464  19.7647  19.7967  19.9468
    19.9468  20.0469  20.0469  20.1064  20.1064  20.3395

          k = 0.0000 0.3849-0.3579 ( 39090 PWs)   bands (ev):

   -62.5395 -62.5342 -62.5308 -62.5302 -62.5260 -62.5255 -62.5243 -62.5225
   -62.5220 -27.0715 -27.0342 -27.0341 -27.0303 -27.0302 -27.0260 -27.0041
   -26.9875 -26.9871 -26.9669 -26.9665 -26.9627 -26.9556 -26.9553 -26.9450
   -26.9447 -26.8924 -26.8923 -26.8768 -26.8236 -26.8235 -26.8071 -26.7928
   -26.7925 -26.7701 -26.7616 -26.7371 -11.5458 -11.5016 -11.5016 -11.4773
   -11.4650 -11.4650 -11.4566 -11.4518 -11.4518 -11.4485 -11.4485 -11.4374
   -11.4374 -11.4107 -11.3745 -11.3745 -11.3616 -11.3148 -11.2910 -11.2910
   -11.2787 -11.2735 -11.2588 -11.2588 -11.2445 -11.2445 -11.2322 -11.2237
   -11.2237 -11.2198 -11.2141 -11.2093 -11.2093 -11.2025 -11.1866 -11.1807
   -11.1807 -11.1537 -11.1537 -11.1185 -11.1072 -11.1072 -11.1057 -11.1023
   -11.1023  -6.0967  -5.4164  -4.7618  -4.7618  -4.3868  -3.7755  -3.6229
    -3.6229  -3.5521  -3.2660  -3.2448  -3.2448  -2.8938  -2.7872  -2.7872
    -2.7359  -2.4954  -2.4718  -2.4717  -2.3019  -2.3019  -2.2912  -2.2877
    -2.2877  -2.0067  -2.0066  -1.9979  -1.9978  -1.9480  -1.8030  -1.8029
    -1.3741  -1.3740  -1.1260  -0.7763  -0.7763   1.5669   1.9838   1.9838
     2.4074   2.4074   3.4382   3.7872   3.8046   3.8046   4.1036   4.4212
     4.5679   4.5679   4.7313   4.7313   4.8176   4.9178   4.9178   5.0186
     5.1133   5.1133   5.2273   5.2273   5.2408   5.2409   5.4358   5.5113
     5.5114   5.5412   5.5413   5.7839   5.7839   5.8361   5.8361   5.9376
     6.1816   6.1816   6.3471   6.4208   6.4208   6.4319   6.4319   6.5395
     6.5683   6.5684   6.7179   6.7180   6.7282   7.2470   7.2470   7.2705
     7.2739   7.2740   7.4257   7.4258   7.4264   7.4265   7.4734   7.4735
     7.5869   7.6316   7.6410   7.6410   7.9712   8.0407   8.0407   8.1275
     8.1275   8.1638   8.2239   8.3008   8.4043   8.5242   8.7133   8.7133
     8.8544   8.8545   8.8979   8.9215   8.9216   8.9639   9.0495   9.1689
     9.1689   9.2115   9.2251   9.2251   9.4195   9.6060   9.6604   9.7097
     9.7098   9.7706   9.7706   9.8339   9.8745   9.9825  10.1262  10.1263
    10.1495  10.1495  10.2825  10.3130  10.3131  10.3255  10.4876  10.4876
    10.6080  10.6080  10.6816  10.6826  10.6826  10.8046  10.8650  11.1193
    11.5897  11.6222  12.0765  12.2584  12.2584  12.4311  12.4311  13.2887
    13.2887  13.3738  13.3740  13.5434  13.5950  13.6274  13.6275  13.8817
    14.0247  14.0249  14.0311  14.0477  14.0703  14.0880  14.0880  14.1457
    14.1457  14.1531  14.1531  14.1666  14.1999  14.2000  14.2110  14.4568
    14.5998  14.6910  14.6910  14.6912  14.6912  14.7174  14.7174  14.8332
    14.8374  14.9832  14.9833  15.2134  15.2566  15.2674  15.2674  15.5692
    15.5924  16.0849  16.0850  16.1402  16.1402  16.2930  16.3382  16.3542
    16.5295  16.5295  16.8970  16.8970  17.1602  17.1602  17.2339  17.2339
    17.4545  17.4545  17.5028  17.6043  17.6094  17.6319  17.6320  17.6458
    17.7095  17.7410  17.7746  17.7746  17.8809  18.1026  18.1026  18.1096
    18.1476  18.1476  18.2989  18.2989  18.3252  18.3253  18.3423  18.3423
    18.4362  18.4648  18.7273  18.7600  18.7600  18.8832  18.8832  19.1362
    19.2600  19.2600  19.3712  19.6135  19.6378  19.6378  19.9538  19.9538
    20.0201  20.0201  20.0901  20.0901  20.1622  20.1622

          k = 0.3333 0.5774 0.0000 ( 39156 PWs)   bands (ev):

   -62.5369 -62.5359 -62.5348 -62.5271 -62.5260 -62.5248 -62.5244 -62.5232
   -62.5219 -27.0694 -27.0689 -27.0683 -27.0117 -27.0107 -27.0097 -27.0031
   -27.0023 -27.0020 -26.9692 -26.9682 -26.9671 -26.9594 -26.9584 -26.9572
   -26.8479 -26.8476 -26.8469 -26.8416 -26.8409 -26.8405 -26.8362 -26.8356
   -26.8351 -26.7585 -26.7579 -26.7574 -11.5168 -11.5168 -11.5168 -11.4765
   -11.4765 -11.4764 -11.4482 -11.4482 -11.4481 -11.4304 -11.4303 -11.4303
   -11.4258 -11.4257 -11.4257 -11.3233 -11.3233 -11.3233 -11.2841 -11.2841
   -11.2841 -11.2611 -11.2610 -11.2610 -11.2529 -11.2528 -11.2528 -11.2437
   -11.2437 -11.2437 -11.2251 -11.2251 -11.2251 -11.2004 -11.2004 -11.2004
   -11.1379 -11.1379 -11.1379 -11.1070 -11.1070 -11.1070 -11.1003 -11.1003
   -11.1002  -5.6404  -5.6403  -5.6403  -3.9660  -3.9655  -3.9650  -3.7663
    -3.7663  -3.7663  -3.1187  -3.1186  -3.1185  -2.9241  -2.9241  -2.9241
    -2.5601  -2.5597  -2.5592  -2.5440  -2.5436  -2.5432  -2.1071  -2.1067
    -2.1062  -2.0180  -2.0176  -2.0172  -1.8704  -1.8700  -1.8695  -1.4747
    -1.4746  -1.4746  -0.8890  -0.8889  -0.8889   1.4045   1.4045   1.4045
     3.0634   3.0635   3.0635   3.6475   3.6476   3.6477   4.1787   4.1790
     4.1792   4.7263   4.7263   4.7263   4.9589   4.9589   4.9589   4.9850
     4.9854   4.9859   5.3073   5.3076   5.3080   5.8125   5.8125   5.8125
     5.8169   5.8173   5.8178   5.8849   5.8849   5.8850   6.0760   6.0761
     6.0761   6.1119   6.1119   6.1120   6.4447   6.4450   6.4452   6.6221
     6.6223   6.6227   6.8480   6.8482   6.8483   7.1333   7.1334   7.1334
     7.1812   7.1813   7.1814   7.3580   7.3581   7.3581   7.4338   7.4338
     7.4339   7.7006   7.7006   7.7006   7.9169   7.9172   7.9174   8.2881
     8.2883   8.2886   8.5047   8.5049   8.5052   8.7261   8.7264   8.7268
     8.8317   8.8318   8.8320   8.9308   8.9310   8.9313   8.9438   8.9439
     8.9439   9.3713   9.3715   9.3717   9.4280   9.4280   9.4281   9.4615
     9.4615   9.4615   9.7005   9.7005   9.7005  10.1559  10.1559  10.1560
    10.2690  10.2692  10.2694  10.2951  10.2957  10.2960  10.4413  10.4414
    10.4414  10.4484  10.4486  10.4490  10.4632  10.4638  10.4641  11.4697
    11.4697  11.4697  11.6247  11.6247  11.6248  13.0680  13.0681  13.0682
    13.4431  13.4432  13.4433  13.4508  13.4509  13.4511  13.7890  13.7893
    13.7896  13.9488  13.9493  13.9497  14.0801  14.0804  14.0806  14.1784
    14.1784  14.1784  14.4246  14.4249  14.4252  14.4874  14.4879  14.4883
    14.6584  14.6585  14.6585  14.9367  14.9367  14.9368  15.3368  15.3369
    15.3369  15.3874  15.3877  15.3878  15.5260  15.5265  15.5268  15.8049
    15.8051  15.8053  15.9614  15.9614  15.9614  16.0947  16.0949  16.0950
    16.4949  16.4952  16.4954  16.6774  16.6775  16.6775  16.9626  16.9626
    16.9626  17.2314  17.2314  17.2314  17.4689  17.4689  17.4690  17.6733
    17.6734  17.6735  18.0078  18.0078  18.0079  18.3330  18.3331  18.3331
    18.7603  18.7604  18.7605  18.9106  18.9106  18.9107  19.0534  19.0534
    19.0535  19.1959  19.1960  19.1960  19.3847  19.3851  19.3855  19.7867
    19.7868  19.7868  19.8302  19.8303  19.8303  19.8307  19.8309  19.8310
    19.8413  19.8415  19.8416  20.0122  20.0122  20.0122

          k = 0.3333 0.5774-0.3579 ( 39090 PWs)   bands (ev):

   -62.5369 -62.5359 -62.5348 -62.5271 -62.5260 -62.5248 -62.5244 -62.5232
   -62.5219 -27.0694 -27.0689 -27.0683 -27.0117 -27.0107 -27.0097 -27.0030
   -27.0023 -27.0020 -26.9692 -26.9682 -26.9671 -26.9594 -26.9583 -26.9572
   -26.8479 -26.8476 -26.8469 -26.8416 -26.8409 -26.8405 -26.8362 -26.8356
   -26.8351 -26.7585 -26.7579 -26.7574 -11.5168 -11.5168 -11.5168 -11.4765
   -11.4765 -11.4764 -11.4482 -11.4482 -11.4481 -11.4304 -11.4303 -11.4303
   -11.4258 -11.4257 -11.4257 -11.3233 -11.3233 -11.3233 -11.2841 -11.2841
   -11.2841 -11.2611 -11.2610 -11.2610 -11.2528 -11.2528 -11.2528 -11.2437
   -11.2437 -11.2437 -11.2251 -11.2251 -11.2251 -11.2004 -11.2004 -11.2003
   -11.1379 -11.1379 -11.1379 -11.1070 -11.1070 -11.1070 -11.1003 -11.1002
   -11.1002  -5.6402  -5.6402  -5.6401  -3.9697  -3.9692  -3.9687  -3.7662
    -3.7662  -3.7662  -3.1053  -3.1052  -3.1052  -2.9241  -2.9240  -2.9240
    -2.5712  -2.5708  -2.5703  -2.5461  -2.5457  -2.5453  -2.1078  -2.1074
    -2.1070  -2.0135  -2.0131  -2.0127  -1.8696  -1.8692  -1.8688  -1.4774
    -1.4774  -1.4773  -0.8891  -0.8890  -0.8890   1.4047   1.4048   1.4048
     3.0636   3.0636   3.0637   3.6990   3.6991   3.6992   4.1748   4.1750
     4.1752   4.7343   4.7343   4.7343   4.8683   4.8687   4.8693   4.9730
     4.9731   4.9731   5.2819   5.2821   5.2825   5.7483   5.7485   5.7487
     5.8672   5.8674   5.8677   5.9364   5.9364   5.9365   6.0975   6.0976
     6.0977   6.0977   6.0978   6.0978   6.4131   6.4134   6.4137   6.5470
     6.5472   6.5475   6.8471   6.8473   6.8474   7.1205   7.1205   7.1205
     7.2708   7.2709   7.2710   7.4610   7.4610   7.4611   7.5023   7.5023
     7.5024   7.8181   7.8182   7.8183   7.9110   7.9113   7.9115   8.2578
     8.2579   8.2579   8.3714   8.3718   8.3720   8.7269   8.7272   8.7275
     8.8306   8.8307   8.8309   8.8942   8.8944   8.8947   8.9393   8.9393
     8.9393   9.4284   9.4284   9.4284   9.4445   9.4447   9.4449   9.5238
     9.5239   9.5239   9.7021   9.7022   9.7022  10.0015  10.0018  10.0019
    10.0188  10.0188  10.0189  10.3006  10.3011  10.3014  10.4239  10.4240
    10.4241  10.4870  10.4872  10.4875  10.5673  10.5678  10.5681  11.4683
    11.4683  11.4683  11.6487  11.6487  11.6488  13.1926  13.1926  13.1927
    13.4382  13.4384  13.4387  13.6507  13.6509  13.6511  13.8060  13.8063
    13.8067  13.8541  13.8546  13.8550  14.1349  14.1352  14.1354  14.1901
    14.1901  14.1902  14.3740  14.3743  14.3746  14.4258  14.4263  14.4266
    14.6433  14.6434  14.6434  14.9390  14.9391  14.9391  15.1669  15.1670
    15.1670  15.4409  15.4413  15.4415  15.6058  15.6062  15.6064  15.6476
    15.6477  15.6479  15.9762  15.9762  15.9762  16.1418  16.1420  16.1421
    16.3746  16.3748  16.3750  16.8339  16.8339  16.8340  17.0061  17.0061
    17.0062  17.2587  17.2587  17.2588  17.8710  17.8711  17.8712  17.8949
    17.8950  17.8951  17.9129  17.9129  17.9130  18.0797  18.0798  18.0798
    18.5279  18.5281  18.5281  18.7477  18.7480  18.7483  18.8349  18.8349
    18.8350  18.9240  18.9240  18.9241  19.4209  19.4209  19.4209  19.5847
    19.5847  19.5848  19.7003  19.7003  19.7003  19.9214  19.9218  19.9221
    19.9586  19.9586  19.9587  19.9960  19.9961  19.9961

     the Fermi energy is    11.6875 ev

     Writing output data file espresso.save

     init_run     :     21.05s CPU     17.51s WALL (       1 calls)
     electrons    :   3192.98s CPU   1312.99s WALL (       1 calls)

     Called by init_run:
     wfcinit      :      0.00s CPU      0.00s WALL (       1 calls)
     potinit      :      1.22s CPU      1.09s WALL (       1 calls)

     Called by electrons:
     c_bands      :   3192.98s CPU   1312.99s WALL (       1 calls)
     v_of_rho     :      1.05s CPU      0.89s WALL (       1 calls)
     newd         :      8.94s CPU      5.26s WALL (       1 calls)

     Called by c_bands:
     init_us_2    :      0.64s CPU      0.72s WALL (       6 calls)
     cegterg      :   3033.48s CPU   1238.33s WALL (       6 calls)

     Called by sum_band:

     Called by *egterg:
     h_psi        :    964.06s CPU    483.95s WALL (     125 calls)
     s_psi        :    260.42s CPU     90.17s WALL (     125 calls)
     g_psi        :      1.34s CPU      1.25s WALL (     113 calls)
     cdiaghg      :    300.69s CPU    145.04s WALL (     119 calls)

     Called by h_psi:
     h_psi:pot    :    960.27s CPU    480.13s WALL (     125 calls)
     h_psi:calbec :    246.59s CPU     86.34s WALL (     125 calls)
     vloc_psi     :    453.27s CPU    304.03s WALL (     125 calls)
     add_vuspsi   :    260.41s CPU     89.76s WALL (     125 calls)

     General routines
     calbec       :    246.59s CPU     86.33s WALL (     125 calls)
     fft          :      0.73s CPU      0.58s WALL (      13 calls)
     ffts         :      0.02s CPU      0.01s WALL (       1 calls)
     fftw         :    274.70s CPU    173.83s WALL (   45082 calls)
     interpolate  :      0.06s CPU      0.07s WALL (       1 calls)
     davcio       :      0.00s CPU      1.33s WALL (      12 calls)

     Parallel routines
     fft_scatter  :     58.14s CPU     71.00s WALL (   45096 calls)

     PWSCF        : 53m36.14s CPU    22m14.45s WALL


   This run was terminated on:  15:18: 1   7May2021            

=------------------------------------------------------------------------------=
   JOB DONE.
=------------------------------------------------------------------------------=
