
     Program PROJWFC v.6.1 starts on  7May2021 at 13:29: 4 

     This program is part of the open-source Quantum ESPRESSO suite
     for quantum simulation of materials; please cite
         "P. Giannozzi et al., J. Phys.:Condens. Matter 21 395502 (2009);
          URL http://www.quantum-espresso.org", 
     in publications or presentations arising from this work. More details at
     http://www.quantum-espresso.org/quote

     Parallel version (MPI & OpenMP), running on      12 processor cores
     Number of MPI processes:                 4
     Threads/MPI process:                     3
     R & G space division:  proc/nbgrp/npool/nimage =       4

     Reading data from directory:
     ./espresso.save

   Info: using nr1, nr2, nr3 values from input

   Info: using nr1, nr2, nr3 values from input

     IMPORTANT: XC functional enforced from input :
     Exchange-correlation      =  SLA  PW   PBE  PBE ( 1  4  3  4 0 0)
     Any further DFT definition will be discarded
     Please, verify this is what you really want

               file Sn.pbe-dn-rrkjus_psl.1.0.0.UPF: wavefunction(s)  5S 4D renormalized

     Parallelization info
     --------------------
     sticks:   dense  smooth     PW     G-vecs:    dense   smooth      PW
     Min        1066     472    127               117375    34788    4987
     Max        1068     473    128               117376    34799    4996
     Sum        4267    1891    511               469503   139185   19971


     Gaussian broadening (read from input): ngauss,degauss=   0    0.010000


     Calling projwave .... 

     Atomic states used for projection
     (read from pseudopotential files):

     state #   1: atom   1 (Sn ), wfc  1 (l=0 m= 1)
     state #   2: atom   1 (Sn ), wfc  2 (l=1 m= 1)
     state #   3: atom   1 (Sn ), wfc  2 (l=1 m= 2)
     state #   4: atom   1 (Sn ), wfc  2 (l=1 m= 3)
     state #   5: atom   1 (Sn ), wfc  3 (l=2 m= 1)
     state #   6: atom   1 (Sn ), wfc  3 (l=2 m= 2)
     state #   7: atom   1 (Sn ), wfc  3 (l=2 m= 3)
     state #   8: atom   1 (Sn ), wfc  3 (l=2 m= 4)
     state #   9: atom   1 (Sn ), wfc  3 (l=2 m= 5)
     state #  10: atom   2 (Sn ), wfc  1 (l=0 m= 1)
     state #  11: atom   2 (Sn ), wfc  2 (l=1 m= 1)
     state #  12: atom   2 (Sn ), wfc  2 (l=1 m= 2)
     state #  13: atom   2 (Sn ), wfc  2 (l=1 m= 3)
     state #  14: atom   2 (Sn ), wfc  3 (l=2 m= 1)
     state #  15: atom   2 (Sn ), wfc  3 (l=2 m= 2)
     state #  16: atom   2 (Sn ), wfc  3 (l=2 m= 3)
     state #  17: atom   2 (Sn ), wfc  3 (l=2 m= 4)
     state #  18: atom   2 (Sn ), wfc  3 (l=2 m= 5)
     state #  19: atom   3 (Sn ), wfc  1 (l=0 m= 1)
     state #  20: atom   3 (Sn ), wfc  2 (l=1 m= 1)
     state #  21: atom   3 (Sn ), wfc  2 (l=1 m= 2)
     state #  22: atom   3 (Sn ), wfc  2 (l=1 m= 3)
     state #  23: atom   3 (Sn ), wfc  3 (l=2 m= 1)
     state #  24: atom   3 (Sn ), wfc  3 (l=2 m= 2)
     state #  25: atom   3 (Sn ), wfc  3 (l=2 m= 3)
     state #  26: atom   3 (Sn ), wfc  3 (l=2 m= 4)
     state #  27: atom   3 (Sn ), wfc  3 (l=2 m= 5)
     state #  28: atom   4 (Sn ), wfc  1 (l=0 m= 1)
     state #  29: atom   4 (Sn ), wfc  2 (l=1 m= 1)
     state #  30: atom   4 (Sn ), wfc  2 (l=1 m= 2)
     state #  31: atom   4 (Sn ), wfc  2 (l=1 m= 3)
     state #  32: atom   4 (Sn ), wfc  3 (l=2 m= 1)
     state #  33: atom   4 (Sn ), wfc  3 (l=2 m= 2)
     state #  34: atom   4 (Sn ), wfc  3 (l=2 m= 3)
     state #  35: atom   4 (Sn ), wfc  3 (l=2 m= 4)
     state #  36: atom   4 (Sn ), wfc  3 (l=2 m= 5)
     state #  37: atom   5 (Se ), wfc  1 (l=0 m= 1)
     state #  38: atom   5 (Se ), wfc  2 (l=1 m= 1)
     state #  39: atom   5 (Se ), wfc  2 (l=1 m= 2)
     state #  40: atom   5 (Se ), wfc  2 (l=1 m= 3)
     state #  41: atom   6 (Se ), wfc  1 (l=0 m= 1)
     state #  42: atom   6 (Se ), wfc  2 (l=1 m= 1)
     state #  43: atom   6 (Se ), wfc  2 (l=1 m= 2)
     state #  44: atom   6 (Se ), wfc  2 (l=1 m= 3)
     state #  45: atom   7 (Se ), wfc  1 (l=0 m= 1)
     state #  46: atom   7 (Se ), wfc  2 (l=1 m= 1)
     state #  47: atom   7 (Se ), wfc  2 (l=1 m= 2)
     state #  48: atom   7 (Se ), wfc  2 (l=1 m= 3)
     state #  49: atom   8 (Se ), wfc  1 (l=0 m= 1)
     state #  50: atom   8 (Se ), wfc  2 (l=1 m= 1)
     state #  51: atom   8 (Se ), wfc  2 (l=1 m= 2)
     state #  52: atom   8 (Se ), wfc  2 (l=1 m= 3)
     state #  53: atom   9 (Se ), wfc  1 (l=0 m= 1)
     state #  54: atom   9 (Se ), wfc  2 (l=1 m= 1)
     state #  55: atom   9 (Se ), wfc  2 (l=1 m= 2)
     state #  56: atom   9 (Se ), wfc  2 (l=1 m= 3)
     state #  57: atom  10 (Se ), wfc  1 (l=0 m= 1)
     state #  58: atom  10 (Se ), wfc  2 (l=1 m= 1)
     state #  59: atom  10 (Se ), wfc  2 (l=1 m= 2)
     state #  60: atom  10 (Se ), wfc  2 (l=1 m= 3)
     state #  61: atom  11 (Se ), wfc  1 (l=0 m= 1)
     state #  62: atom  11 (Se ), wfc  2 (l=1 m= 1)
     state #  63: atom  11 (Se ), wfc  2 (l=1 m= 2)
     state #  64: atom  11 (Se ), wfc  2 (l=1 m= 3)
     state #  65: atom  12 (Se ), wfc  1 (l=0 m= 1)
     state #  66: atom  12 (Se ), wfc  2 (l=1 m= 1)
     state #  67: atom  12 (Se ), wfc  2 (l=1 m= 2)
     state #  68: atom  12 (Se ), wfc  2 (l=1 m= 3)
     state #  69: atom  13 (Se ), wfc  1 (l=0 m= 1)
     state #  70: atom  13 (Se ), wfc  2 (l=1 m= 1)
     state #  71: atom  13 (Se ), wfc  2 (l=1 m= 2)
     state #  72: atom  13 (Se ), wfc  2 (l=1 m= 3)
     state #  73: atom  14 (Se ), wfc  1 (l=0 m= 1)
     state #  74: atom  14 (Se ), wfc  2 (l=1 m= 1)
     state #  75: atom  14 (Se ), wfc  2 (l=1 m= 2)
     state #  76: atom  14 (Se ), wfc  2 (l=1 m= 3)
     state #  77: atom  15 (Se ), wfc  1 (l=0 m= 1)
     state #  78: atom  15 (Se ), wfc  2 (l=1 m= 1)
     state #  79: atom  15 (Se ), wfc  2 (l=1 m= 2)
     state #  80: atom  15 (Se ), wfc  2 (l=1 m= 3)
     state #  81: atom  16 (Se ), wfc  1 (l=0 m= 1)
     state #  82: atom  16 (Se ), wfc  2 (l=1 m= 1)
     state #  83: atom  16 (Se ), wfc  2 (l=1 m= 2)
     state #  84: atom  16 (Se ), wfc  2 (l=1 m= 3)
     state #  85: atom  17 (Se ), wfc  1 (l=0 m= 1)
     state #  86: atom  17 (Se ), wfc  2 (l=1 m= 1)
     state #  87: atom  17 (Se ), wfc  2 (l=1 m= 2)
     state #  88: atom  17 (Se ), wfc  2 (l=1 m= 3)
     state #  89: atom  18 (Se ), wfc  1 (l=0 m= 1)
     state #  90: atom  18 (Se ), wfc  2 (l=1 m= 1)
     state #  91: atom  18 (Se ), wfc  2 (l=1 m= 2)
     state #  92: atom  18 (Se ), wfc  2 (l=1 m= 3)
     state #  93: atom  19 (Se ), wfc  1 (l=0 m= 1)
     state #  94: atom  19 (Se ), wfc  2 (l=1 m= 1)
     state #  95: atom  19 (Se ), wfc  2 (l=1 m= 2)
     state #  96: atom  19 (Se ), wfc  2 (l=1 m= 3)
     state #  97: atom  20 (Se ), wfc  1 (l=0 m= 1)
     state #  98: atom  20 (Se ), wfc  2 (l=1 m= 1)
     state #  99: atom  20 (Se ), wfc  2 (l=1 m= 2)
     state # 100: atom  20 (Se ), wfc  2 (l=1 m= 3)
     state # 101: atom  21 (W  ), wfc  1 (l=0 m= 1)
     state # 102: atom  21 (W  ), wfc  2 (l=1 m= 1)
     state # 103: atom  21 (W  ), wfc  2 (l=1 m= 2)
     state # 104: atom  21 (W  ), wfc  2 (l=1 m= 3)
     state # 105: atom  21 (W  ), wfc  3 (l=2 m= 1)
     state # 106: atom  21 (W  ), wfc  3 (l=2 m= 2)
     state # 107: atom  21 (W  ), wfc  3 (l=2 m= 3)
     state # 108: atom  21 (W  ), wfc  3 (l=2 m= 4)
     state # 109: atom  21 (W  ), wfc  3 (l=2 m= 5)
     state # 110: atom  21 (W  ), wfc  4 (l=0 m= 1)
     state # 111: atom  21 (W  ), wfc  5 (l=1 m= 1)
     state # 112: atom  21 (W  ), wfc  5 (l=1 m= 2)
     state # 113: atom  21 (W  ), wfc  5 (l=1 m= 3)
     state # 114: atom  22 (W  ), wfc  1 (l=0 m= 1)
     state # 115: atom  22 (W  ), wfc  2 (l=1 m= 1)
     state # 116: atom  22 (W  ), wfc  2 (l=1 m= 2)
     state # 117: atom  22 (W  ), wfc  2 (l=1 m= 3)
     state # 118: atom  22 (W  ), wfc  3 (l=2 m= 1)
     state # 119: atom  22 (W  ), wfc  3 (l=2 m= 2)
     state # 120: atom  22 (W  ), wfc  3 (l=2 m= 3)
     state # 121: atom  22 (W  ), wfc  3 (l=2 m= 4)
     state # 122: atom  22 (W  ), wfc  3 (l=2 m= 5)
     state # 123: atom  22 (W  ), wfc  4 (l=0 m= 1)
     state # 124: atom  22 (W  ), wfc  5 (l=1 m= 1)
     state # 125: atom  22 (W  ), wfc  5 (l=1 m= 2)
     state # 126: atom  22 (W  ), wfc  5 (l=1 m= 3)
     state # 127: atom  23 (W  ), wfc  1 (l=0 m= 1)
     state # 128: atom  23 (W  ), wfc  2 (l=1 m= 1)
     state # 129: atom  23 (W  ), wfc  2 (l=1 m= 2)
     state # 130: atom  23 (W  ), wfc  2 (l=1 m= 3)
     state # 131: atom  23 (W  ), wfc  3 (l=2 m= 1)
     state # 132: atom  23 (W  ), wfc  3 (l=2 m= 2)
     state # 133: atom  23 (W  ), wfc  3 (l=2 m= 3)
     state # 134: atom  23 (W  ), wfc  3 (l=2 m= 4)
     state # 135: atom  23 (W  ), wfc  3 (l=2 m= 5)
     state # 136: atom  23 (W  ), wfc  4 (l=0 m= 1)
     state # 137: atom  23 (W  ), wfc  5 (l=1 m= 1)
     state # 138: atom  23 (W  ), wfc  5 (l=1 m= 2)
     state # 139: atom  23 (W  ), wfc  5 (l=1 m= 3)
     state # 140: atom  24 (W  ), wfc  1 (l=0 m= 1)
     state # 141: atom  24 (W  ), wfc  2 (l=1 m= 1)
     state # 142: atom  24 (W  ), wfc  2 (l=1 m= 2)
     state # 143: atom  24 (W  ), wfc  2 (l=1 m= 3)
     state # 144: atom  24 (W  ), wfc  3 (l=2 m= 1)
     state # 145: atom  24 (W  ), wfc  3 (l=2 m= 2)
     state # 146: atom  24 (W  ), wfc  3 (l=2 m= 3)
     state # 147: atom  24 (W  ), wfc  3 (l=2 m= 4)
     state # 148: atom  24 (W  ), wfc  3 (l=2 m= 5)
     state # 149: atom  24 (W  ), wfc  4 (l=0 m= 1)
     state # 150: atom  24 (W  ), wfc  5 (l=1 m= 1)
     state # 151: atom  24 (W  ), wfc  5 (l=1 m= 2)
     state # 152: atom  24 (W  ), wfc  5 (l=1 m= 3)

 k =   0.0000000000  0.0000000000  0.0000000000
==== e(   1) =   -62.59818 eV ==== 
     psi = 0.260*[# 114]+0.236*[# 101]+0.236*[# 127]+0.236*[# 140]+0.003*[#  54]+
          +0.003*[#  58]+0.003*[#  62]+0.003*[#  66]+0.003*[#  86]+0.003*[#  90]+
          +0.003*[#  94]+0.003*[#  98]+0.001*[# 110]+0.001*[# 136]+0.001*[# 149]+
          +0.001*[# 123]+
    |psi|^2 = 1.000
==== e(   2) =   -62.58129 eV ==== 
     psi = 0.710*[# 114]+0.087*[# 101]+0.087*[# 127]+0.087*[# 140]+0.006*[# 123]+
          +0.002*[#  56]+0.002*[#  88]+0.002*[#  59]+0.002*[#  67]+0.002*[#  91]+
          +0.002*[#  99]+0.001*[# 147]+
    |psi|^2 = 1.000
==== e(   3) =   -62.58072 eV ==== 
     psi = 0.323*[# 101]+0.323*[# 127]+0.323*[# 140]+0.003*[# 110]+0.003*[# 136]+
          +0.003*[# 149]+0.001*[#  55]+0.001*[#  63]+0.001*[#  64]+0.001*[#  87]+
          +0.001*[#  95]+0.001*[#  96]+0.001*[#  60]+0.001*[#  68]+0.001*[#  92]+
          +0.001*[# 100]+
    |psi|^2 = 1.000
==== e(   4) =   -62.58068 eV ==== 
     psi = 0.323*[# 101]+0.323*[# 127]+0.323*[# 140]+0.003*[# 110]+0.003*[# 136]+
          +0.003*[# 149]+0.001*[#  55]+0.001*[#  63]+0.001*[#  64]+0.001*[#  87]+
          +0.001*[#  95]+0.001*[#  96]+0.001*[#  60]+0.001*[#  68]+0.001*[#  92]+
          +0.001*[# 100]+
    |psi|^2 = 1.000
==== e(   5) =   -27.16477 eV ==== 
     psi = 0.184*[# 116]+0.184*[# 117]+0.183*[# 142]+0.143*[# 104]+0.143*[# 130]+
          +0.061*[# 103]+0.061*[# 129]+0.021*[# 143]+0.002*[# 125]+0.002*[# 126]+
          +0.002*[# 151]+0.001*[#  54]+0.001*[#  58]+0.001*[#  66]+0.001*[#  86]+
          +0.001*[#  90]+0.001*[#  98]+0.001*[# 113]+0.001*[# 139]+
    |psi|^2 = 1.000
==== e(   6) =   -27.16475 eV ==== 
     psi = 0.184*[# 116]+0.184*[# 117]+0.183*[# 142]+0.143*[# 104]+0.143*[# 130]+
          +0.061*[# 103]+0.061*[# 129]+0.020*[# 143]+0.002*[# 125]+0.002*[# 126]+
          +0.002*[# 151]+0.001*[#  54]+0.001*[#  58]+0.001*[#  66]+0.001*[#  86]+
          +0.001*[#  90]+0.001*[#  98]+0.001*[# 113]+0.001*[# 139]+
    |psi|^2 = 1.000
==== e(   7) =   -27.16446 eV ==== 
     psi = 0.326*[# 143]+0.245*[# 103]+0.245*[# 129]+0.082*[# 104]+0.082*[# 130]+
          +0.003*[#  62]+0.003*[#  94]+0.003*[# 152]+0.002*[# 112]+0.002*[# 138]+
    |psi|^2 = 1.000
==== e(   8) =   -27.00234 eV ==== 
     psi = 0.250*[# 115]+0.245*[# 102]+0.245*[# 128]+0.245*[# 141]+0.002*[# 111]+
          +0.001*[# 124]+0.002*[# 137]+0.002*[# 150]+
    |psi|^2 = 1.000
==== e(   9) =   -26.92893 eV ==== 
     psi = 0.736*[# 115]+0.084*[# 102]+0.084*[# 128]+0.084*[# 141]+0.001*[#  56]+
          +0.001*[#  88]+0.001*[# 124]+0.001*[#  59]+0.001*[#  67]+0.001*[#  91]+
          +0.001*[#  99]+
    |psi|^2 = 1.000
==== e(  10) =   -26.92836 eV ==== 
     psi = 0.329*[# 102]+0.329*[# 128]+0.329*[# 141]+
    |psi|^2 = 1.000
==== e(  11) =   -26.92832 eV ==== 
     psi = 0.329*[# 102]+0.329*[# 128]+0.329*[# 141]+
    |psi|^2 = 1.000
==== e(  12) =   -26.89429 eV ==== 
     psi = 0.186*[# 116]+0.186*[# 117]+0.185*[# 143]+0.144*[# 103]+0.144*[# 129]+
          +0.062*[# 104]+0.062*[# 130]+0.021*[# 142]+
    |psi|^2 = 1.000
==== e(  13) =   -26.89427 eV ==== 
     psi = 0.187*[# 116]+0.187*[# 117]+0.185*[# 143]+0.144*[# 103]+0.144*[# 129]+
          +0.062*[# 104]+0.062*[# 130]+0.021*[# 142]+
    |psi|^2 = 1.000
==== e(  14) =   -26.89403 eV ==== 
     psi = 0.331*[# 142]+0.248*[# 104]+0.248*[# 130]+0.083*[# 103]+0.083*[# 129]+
    |psi|^2 = 1.000
==== e(  15) =   -26.81247 eV ==== 
     psi = 0.124*[# 143]+0.124*[# 103]+0.124*[# 129]+0.123*[# 104]+0.123*[# 130]+
          +0.123*[# 142]+0.122*[# 116]+0.122*[# 117]+0.002*[# 112]+0.002*[# 113]+
          +0.002*[# 125]+0.002*[# 126]+0.002*[# 138]+0.002*[# 139]+0.002*[# 151]+
          +0.002*[# 152]+
    |psi|^2 = 1.000
==== e(  16) =   -26.81246 eV ==== 
     psi = 0.124*[# 143]+0.124*[# 103]+0.124*[# 129]+0.123*[# 104]+0.123*[# 130]+
          +0.123*[# 142]+0.122*[# 116]+0.122*[# 117]+0.002*[# 112]+0.002*[# 113]+
          +0.002*[# 125]+0.002*[# 126]+0.002*[# 138]+0.002*[# 139]+0.002*[# 151]+
          +0.002*[# 152]+
    |psi|^2 = 1.000
==== e(  17) =   -11.49112 eV ==== 
     psi = 0.303*[#   8]+0.228*[#  18]+0.228*[#  36]+0.076*[#  17]+0.076*[#  35]+
          +0.047*[#  23]+0.005*[#   5]+0.005*[#  14]+0.005*[#  32]+0.004*[#  41]+
          +0.004*[#  73]+0.003*[#  42]+0.003*[#  74]+0.002*[#  19]+
    |psi|^2 = 0.999
==== e(  18) =   -11.49104 eV ==== 
     psi = 0.171*[#   9]+0.170*[#  26]+0.170*[#  27]+0.133*[#  17]+0.133*[#  35]+
          +0.058*[#  18]+0.058*[#  36]+0.021*[#   5]+0.021*[#  14]+0.021*[#  32]+
          +0.020*[#   8]+0.002*[#  37]+0.002*[#  45]+0.002*[#  49]+0.002*[#  69]+
          +0.002*[#  77]+0.002*[#  81]+0.001*[#  38]+0.001*[#  46]+0.001*[#  50]+
          +0.001*[#  70]+0.001*[#  78]+0.001*[#  82]+
    |psi|^2 = 0.999
==== e(  19) =   -11.49102 eV ==== 
     psi = 0.171*[#   9]+0.171*[#  26]+0.171*[#  27]+0.133*[#  17]+0.133*[#  35]+
          +0.057*[#  18]+0.057*[#  36]+0.021*[#   5]+0.021*[#  14]+0.021*[#  32]+
          +0.019*[#   8]+0.002*[#  37]+0.002*[#  45]+0.002*[#  49]+0.002*[#  69]+
          +0.002*[#  77]+0.002*[#  81]+0.001*[#  38]+0.001*[#  46]+0.001*[#  50]+
          +0.001*[#  70]+0.001*[#  78]+0.001*[#  82]+
    |psi|^2 = 0.999
==== e(  20) =   -11.45414 eV ==== 
     psi = 0.318*[#   7]+0.239*[#  15]+0.239*[#  33]+0.081*[#  16]+0.081*[#  34]+
          +0.010*[#  41]+0.010*[#  73]+0.002*[#  42]+0.002*[#  74]+0.002*[#   6]+
          +0.002*[#  24]+0.002*[#  25]+0.001*[#  37]+0.001*[#  45]+0.001*[#  49]+
          +0.001*[#  69]+0.001*[#  77]+0.001*[#  81]+
    |psi|^2 = 1.000
==== e(  21) =   -11.45403 eV ==== 
     psi = 0.179*[#   6]+0.179*[#  24]+0.179*[#  25]+0.140*[#  16]+0.140*[#  34]+
          +0.062*[#  15]+0.062*[#  33]+0.023*[#   7]+0.004*[#  37]+0.004*[#  45]+
          +0.004*[#  49]+0.004*[#  69]+0.004*[#  77]+0.004*[#  81]+0.001*[#  38]+
          +0.001*[#  46]+0.001*[#  50]+0.001*[#  70]+0.001*[#  78]+0.001*[#  82]+
    |psi|^2 = 1.000
==== e(  22) =   -11.45401 eV ==== 
     psi = 0.180*[#   6]+0.180*[#  24]+0.180*[#  25]+0.140*[#  16]+0.140*[#  34]+
          +0.060*[#  15]+0.060*[#  33]+0.020*[#   7]+0.004*[#  37]+0.004*[#  45]+
          +0.004*[#  49]+0.004*[#  69]+0.004*[#  77]+0.004*[#  81]+0.001*[#  38]+
          +0.001*[#  46]+0.001*[#  50]+0.001*[#  70]+0.001*[#  78]+0.001*[#  82]+
    |psi|^2 = 1.000
==== e(  23) =   -11.32678 eV ==== 
     psi = 0.124*[#   8]+0.124*[#  18]+0.124*[#  26]+0.124*[#  27]+0.124*[#  36]+
          +0.124*[#   9]+0.124*[#  17]+0.124*[#  35]+
    |psi|^2 = 0.999
==== e(  24) =   -11.32677 eV ==== 
     psi = 0.124*[#   8]+0.124*[#  18]+0.124*[#  26]+0.124*[#  27]+0.124*[#  36]+
          +0.124*[#   9]+0.124*[#  17]+0.124*[#  35]+
    |psi|^2 = 0.999
==== e(  25) =   -11.24579 eV ==== 
     psi = 0.248*[#   5]+0.248*[#  14]+0.248*[#  32]+0.248*[#  23]+
    |psi|^2 = 0.999
==== e(  26) =   -11.19096 eV ==== 
     psi = 0.329*[#   6]+0.247*[#  16]+0.247*[#  34]+0.083*[#  15]+0.083*[#  33]+
          +0.001*[#  51]+0.001*[#  83]+0.001*[#   7]+0.001*[#  24]+0.001*[#  25]+
          +0.001*[#  40]+0.001*[#  48]+0.001*[#  72]+0.001*[#  80]+
    |psi|^2 = 0.999
==== e(  27) =   -11.19087 eV ==== 
     psi = 0.185*[#   7]+0.184*[#  24]+0.184*[#  25]+0.145*[#  15]+0.145*[#  33]+
          +0.063*[#  16]+0.063*[#  34]+0.022*[#   6]+
    |psi|^2 = 0.999
==== e(  28) =   -11.19085 eV ==== 
     psi = 0.186*[#   7]+0.185*[#  24]+0.185*[#  25]+0.145*[#  15]+0.145*[#  33]+
          +0.062*[#  16]+0.062*[#  34]+0.021*[#   6]+
    |psi|^2 = 0.999
==== e(  29) =   -11.13606 eV ==== 
     psi = 0.125*[#  24]+0.125*[#  25]+0.125*[#   6]+0.124*[#  16]+0.124*[#  34]+
          +0.124*[#  15]+0.124*[#  33]+0.124*[#   7]+
    |psi|^2 = 0.999
==== e(  30) =   -11.13605 eV ==== 
     psi = 0.125*[#  24]+0.125*[#  25]+0.125*[#   6]+0.124*[#  16]+0.124*[#  34]+
          +0.124*[#  15]+0.124*[#  33]+0.124*[#   7]+
    |psi|^2 = 0.999
==== e(  31) =   -11.04865 eV ==== 
     psi = 0.311*[#   5]+0.311*[#  14]+0.311*[#  32]+0.011*[#   9]+0.011*[#  26]+
          +0.011*[#  27]+0.009*[#  17]+0.009*[#  35]+0.004*[#  18]+0.004*[#  36]+
          +0.001*[#   8]+
    |psi|^2 = 1.000
==== e(  32) =   -11.04861 eV ==== 
     psi = 0.310*[#   5]+0.310*[#  14]+0.310*[#  32]+0.011*[#   9]+0.011*[#  26]+
          +0.011*[#  27]+0.009*[#  17]+0.009*[#  35]+0.004*[#  23]+0.004*[#  18]+
          +0.004*[#  36]+0.001*[#   8]+
    |psi|^2 = 1.000
==== e(  33) =   -11.04843 eV ==== 
     psi = 0.696*[#  23]+0.079*[#   5]+0.079*[#  14]+0.079*[#  32]+0.020*[#   8]+
          +0.015*[#  18]+0.015*[#  36]+0.005*[#  17]+0.005*[#  35]+
    |psi|^2 = 1.000
==== e(  34) =   -11.03912 eV ==== 
     psi = 0.331*[#   9]+0.249*[#  17]+0.249*[#  35]+0.084*[#  18]+0.084*[#  36]+
          +0.001*[#   8]+0.001*[#  26]+0.001*[#  27]+
    |psi|^2 = 1.000
==== e(  35) =   -11.03903 eV ==== 
     psi = 0.187*[#  26]+0.187*[#  27]+0.186*[#   8]+0.145*[#  18]+0.145*[#  36]+
          +0.063*[#  17]+0.063*[#  35]+0.023*[#   9]+
    |psi|^2 = 1.000
==== e(  36) =   -11.03901 eV ==== 
     psi = 0.188*[#  26]+0.188*[#  27]+0.187*[#   8]+0.146*[#  18]+0.146*[#  36]+
          +0.062*[#  17]+0.062*[#  35]+0.021*[#   9]+
    |psi|^2 = 1.000
==== e(  37) =    -6.54228 eV ==== 
     psi = 0.098*[#   1]+0.098*[#  10]+0.098*[#  19]+0.098*[#  28]+0.065*[#  37]+
          +0.065*[#  41]+0.065*[#  45]+0.065*[#  49]+0.065*[#  69]+0.065*[#  73]+
          +0.065*[#  77]+0.065*[#  81]+0.010*[#  38]+0.010*[#  42]+0.010*[#  46]+
          +0.010*[#  50]+0.010*[#  70]+0.010*[#  74]+0.010*[#  78]+0.010*[#  82]+
    |psi|^2 = 0.999
==== e(  38) =    -4.51923 eV ==== 
     psi = 0.098*[# 110]+0.098*[# 123]+0.098*[# 136]+0.098*[# 149]+0.071*[#  53]+
          +0.071*[#  57]+0.071*[#  61]+0.071*[#  65]+0.071*[#  85]+0.071*[#  89]+
          +0.071*[#  93]+0.071*[#  97]+0.003*[# 101]+0.003*[# 114]+0.003*[# 127]+
          +0.003*[# 140]+0.003*[#  54]+0.003*[#  58]+0.003*[#  62]+0.003*[#  66]+
          +0.003*[#  86]+0.003*[#  90]+0.003*[#  94]+0.003*[#  98]+
    |psi|^2 = 0.999
==== e(  39) =    -4.07126 eV ==== 
     psi = 0.104*[#   2]+0.104*[#  11]+0.104*[#  20]+0.104*[#  29]+0.072*[#  37]+
          +0.072*[#  41]+0.072*[#  45]+0.072*[#  49]+0.072*[#  69]+0.072*[#  73]+
          +0.072*[#  77]+0.072*[#  81]+0.001*[# 111]+0.001*[# 124]+0.001*[# 137]+
          +0.001*[# 150]+
    |psi|^2 = 0.998
==== e(  40) =    -3.30565 eV ==== 
     psi = 0.220*[#  41]+0.220*[#  73]+0.087*[#   4]+0.066*[#  12]+0.066*[#  30]+
          +0.048*[#  19]+0.027*[#  37]+0.027*[#  45]+0.027*[#  49]+0.027*[#  69]+
          +0.027*[#  77]+0.027*[#  81]+0.023*[#  13]+0.023*[#  31]+0.014*[#  42]+
          +0.014*[#  74]+0.006*[#   8]+0.006*[#   1]+0.006*[#  10]+0.006*[#  28]+
          +0.005*[#  18]+0.005*[#  36]+0.002*[#  38]+0.002*[#  46]+0.002*[#  50]+
          +0.002*[#  70]+0.002*[#  78]+0.002*[#  82]+0.002*[#  17]+0.002*[#  35]+
          +0.001*[#   3]+0.001*[#  21]+0.001*[#  22]+
    |psi|^2 = 0.999
==== e(  41) =    -3.30549 eV ==== 
     psi = 0.100*[#  37]+0.100*[#  45]+0.100*[#  49]+0.100*[#  69]+0.100*[#  77]+
          +0.100*[#  81]+0.050*[#   3]+0.050*[#  21]+0.050*[#  22]+0.039*[#  13]+
          +0.039*[#  31]+0.022*[#   1]+0.022*[#  10]+0.022*[#  28]+0.017*[#  12]+
          +0.017*[#  30]+0.006*[#  38]+0.006*[#  46]+0.006*[#  50]+0.006*[#  70]+
          +0.006*[#  78]+0.006*[#  82]+0.006*[#   4]+0.004*[#   9]+0.004*[#  26]+
          +0.004*[#  27]+0.003*[#  17]+0.003*[#  35]+0.001*[#  18]+0.001*[#  36]+
    |psi|^2 = 0.999
==== e(  42) =    -3.30542 eV ==== 
     psi = 0.099*[#  37]+0.099*[#  45]+0.099*[#  49]+0.099*[#  69]+0.099*[#  77]+
          +0.099*[#  81]+0.049*[#   3]+0.049*[#  21]+0.049*[#  22]+0.039*[#  13]+
          +0.039*[#  31]+0.021*[#   1]+0.021*[#  10]+0.021*[#  28]+0.018*[#  12]+
          +0.018*[#  30]+0.008*[#   4]+0.006*[#  38]+0.006*[#  46]+0.006*[#  50]+
          +0.006*[#  70]+0.006*[#  78]+0.006*[#  82]+0.005*[#  41]+0.005*[#  73]+
          +0.003*[#   9]+0.003*[#  26]+0.003*[#  27]+0.003*[#  17]+0.003*[#  35]+
          +0.001*[#  18]+0.001*[#  36]+0.001*[#  19]+
    |psi|^2 = 0.999
==== e(  43) =    -2.70794 eV ==== 
     psi = 0.103*[# 111]+0.103*[# 124]+0.103*[# 137]+0.103*[# 150]+0.072*[#  85]+
          +0.072*[#  89]+0.072*[#  97]+0.072*[#  93]+0.072*[#  53]+0.072*[#  57]+
          +0.072*[#  65]+0.072*[#  61]+0.002*[# 102]+0.002*[# 115]+0.002*[# 128]+
          +0.002*[# 141]+
    |psi|^2 = 0.999
==== e(  44) =    -2.10088 eV ==== 
     psi = 0.114*[#  53]+0.114*[#  57]+0.114*[#  65]+0.111*[#  85]+0.111*[#  89]+
          +0.111*[#  97]+0.031*[# 125]+0.031*[# 126]+0.031*[# 151]+0.024*[# 113]+
          +0.024*[# 139]+0.017*[# 121]+0.017*[# 122]+0.017*[# 148]+0.013*[# 108]+
          +0.013*[# 134]+0.013*[# 110]+0.013*[# 136]+0.013*[# 149]+0.010*[# 112]+
          +0.010*[# 138]+0.006*[# 109]+0.006*[# 135]+0.003*[# 152]+0.003*[#  54]+
          +0.003*[#  58]+0.003*[#  66]+0.003*[#  86]+0.003*[#  90]+0.003*[#  98]+
          +0.002*[# 147]+0.001*[# 116]+0.001*[# 117]+0.001*[# 142]+0.001*[# 104]+
          +0.001*[# 130]+
    |psi|^2 = 0.999
==== e(  45) =    -2.10083 eV ==== 
     psi = 0.114*[#  53]+0.114*[#  57]+0.114*[#  65]+0.111*[#  85]+0.111*[#  89]+
          +0.111*[#  97]+0.030*[# 125]+0.030*[# 126]+0.030*[# 151]+0.024*[# 113]+
          +0.024*[# 139]+0.017*[# 121]+0.017*[# 122]+0.017*[# 148]+0.013*[# 108]+
          +0.013*[# 134]+0.013*[# 110]+0.013*[# 136]+0.013*[# 149]+0.010*[# 112]+
          +0.010*[# 138]+0.006*[# 109]+0.006*[# 135]+0.003*[# 152]+0.003*[#  54]+
          +0.003*[#  58]+0.003*[#  66]+0.003*[#  86]+0.003*[#  90]+0.003*[#  98]+
          +0.002*[# 147]+0.001*[# 116]+0.001*[# 117]+0.001*[# 142]+0.001*[# 104]+
          +0.001*[# 130]+
    |psi|^2 = 0.999
==== e(  46) =    -2.10021 eV ==== 
     psi = 0.257*[#  61]+0.250*[#  93]+0.054*[# 152]+0.041*[# 112]+0.041*[# 138]+
          +0.030*[# 147]+0.029*[#  53]+0.029*[#  57]+0.029*[#  65]+0.028*[# 123]+
          +0.028*[#  85]+0.028*[#  89]+0.028*[#  97]+0.023*[# 109]+0.023*[# 135]+
          +0.014*[# 113]+0.014*[# 139]+0.008*[# 108]+0.008*[# 134]+0.006*[#  62]+
          +0.006*[#  94]+0.003*[# 110]+0.003*[# 136]+0.003*[# 149]+0.003*[# 143]+
          +0.002*[# 103]+0.002*[# 129]+0.001*[# 118]+0.001*[# 114]+
    |psi|^2 = 0.999
==== e(  47) =    -1.81575 eV ==== 
     psi = 0.129*[#  85]+0.129*[#  89]+0.129*[#  97]+0.126*[#  53]+0.126*[#  57]+
          +0.126*[#  65]+0.040*[# 119]+0.040*[# 120]+0.040*[# 145]+0.031*[# 107]+
          +0.031*[# 133]+0.013*[# 106]+0.013*[# 132]+0.006*[# 111]+0.006*[# 137]+
          +0.006*[# 150]+0.004*[# 146]+
    |psi|^2 = 0.999
==== e(  48) =    -1.81570 eV ==== 
     psi = 0.129*[#  85]+0.129*[#  89]+0.129*[#  97]+0.126*[#  53]+0.126*[#  57]+
          +0.126*[#  65]+0.040*[# 119]+0.040*[# 120]+0.040*[# 145]+0.031*[# 107]+
          +0.031*[# 133]+0.013*[# 106]+0.013*[# 132]+0.006*[# 111]+0.006*[# 137]+
          +0.006*[# 150]+0.004*[# 146]+
    |psi|^2 = 0.999
==== e(  49) =    -1.81511 eV ==== 
     psi = 0.290*[#  93]+0.283*[#  61]+0.070*[# 146]+0.053*[# 106]+0.053*[# 132]+
          +0.032*[#  85]+0.032*[#  89]+0.032*[#  97]+0.031*[#  53]+0.031*[#  57]+
          +0.031*[#  65]+0.018*[# 107]+0.018*[# 133]+0.013*[# 124]+0.001*[# 111]+
          +0.001*[# 137]+0.001*[# 150]+
    |psi|^2 = 0.999
==== e(  50) =    -1.27583 eV ==== 
     psi = 0.335*[#  73]+0.334*[#  41]+0.047*[#  20]+0.039*[#  37]+0.039*[#  45]+
          +0.039*[#  49]+0.039*[#  69]+0.039*[#  77]+0.039*[#  81]+0.009*[#   7]+
          +0.006*[#  15]+0.006*[#  33]+0.005*[#   2]+0.005*[#  11]+0.005*[#  29]+
          +0.002*[#  16]+0.002*[#  34]+
    |psi|^2 = 0.998
==== e(  51) =    -1.27566 eV ==== 
     psi = 0.151*[#  69]+0.151*[#  77]+0.151*[#  81]+0.150*[#  37]+0.150*[#  45]+
          +0.150*[#  49]+0.021*[#   2]+0.021*[#  11]+0.021*[#  29]+0.005*[#   6]+
          +0.005*[#  24]+0.005*[#  25]+0.004*[#  16]+0.004*[#  34]+0.002*[#  15]+
          +0.002*[#  33]+
    |psi|^2 = 0.998
==== e(  52) =    -1.27562 eV ==== 
     psi = 0.149*[#  69]+0.149*[#  77]+0.149*[#  81]+0.149*[#  37]+0.149*[#  45]+
          +0.149*[#  49]+0.021*[#   2]+0.021*[#  11]+0.021*[#  29]+0.005*[#   6]+
          +0.005*[#  24]+0.005*[#  25]+0.004*[#  41]+0.004*[#  73]+0.004*[#  16]+
          +0.004*[#  34]+0.002*[#  15]+0.002*[#  33]+
    |psi|^2 = 0.998
==== e(  53) =     1.11743 eV ==== 
     psi = 0.119*[#   1]+0.119*[#  10]+0.119*[#  28]+0.040*[#  43]+0.040*[#  44]+
          +0.040*[#  51]+0.040*[#  75]+0.040*[#  76]+0.040*[#  83]+0.033*[#  40]+
          +0.033*[#  48]+0.033*[#  72]+0.033*[#  80]+0.026*[#  19]+0.022*[#   3]+
          +0.022*[#  21]+0.022*[#  22]+0.019*[#  39]+0.019*[#  47]+0.019*[#  71]+
          +0.019*[#  79]+0.018*[#  13]+0.018*[#  31]+0.011*[#  52]+0.011*[#  84]+
          +0.010*[#  12]+0.010*[#  30]+0.006*[#   4]+
    |psi|^2 = 0.990
==== e(  54) =     1.11752 eV ==== 
     psi = 0.127*[#   1]+0.127*[#  10]+0.127*[#  28]+0.044*[#  43]+0.044*[#  44]+
          +0.044*[#  51]+0.044*[#  75]+0.044*[#  76]+0.044*[#  83]+0.034*[#  40]+
          +0.034*[#  48]+0.034*[#  72]+0.034*[#  80]+0.023*[#   3]+0.023*[#  21]+
          +0.023*[#  22]+0.018*[#  13]+0.018*[#  31]+0.015*[#  39]+0.015*[#  47]+
          +0.015*[#  71]+0.015*[#  79]+0.008*[#  12]+0.008*[#  30]+0.006*[#  52]+
          +0.006*[#  84]+0.003*[#   4]+0.003*[#  19]+
    |psi|^2 = 0.990
==== e(  55) =     1.11763 eV ==== 
     psi = 0.259*[#  19]+0.071*[#  52]+0.071*[#  84]+0.055*[#  39]+0.055*[#  47]+
          +0.055*[#  71]+0.055*[#  79]+0.042*[#   1]+0.042*[#  10]+0.042*[#  28]+
          +0.038*[#   4]+0.029*[#  12]+0.029*[#  30]+0.021*[#  40]+0.021*[#  48]+
          +0.021*[#  72]+0.021*[#  80]+0.011*[#  13]+0.011*[#  31]+0.004*[#  43]+
          +0.004*[#  44]+0.004*[#  51]+0.004*[#  75]+0.004*[#  76]+0.004*[#  83]+
          +0.002*[#   3]+0.002*[#  21]+0.002*[#  22]+0.001*[#  23]+
    |psi|^2 = 0.990
==== e(  56) =     3.06496 eV ==== 
     psi = 0.063*[#  38]+0.063*[#  42]+0.063*[#  46]+0.063*[#  50]+0.063*[#  70]+
          +0.063*[#  74]+0.063*[#  78]+0.063*[#  82]+0.037*[#  37]+0.037*[#  41]+
          +0.037*[#  45]+0.037*[#  49]+0.037*[#  69]+0.037*[#  73]+0.037*[#  77]+
          +0.037*[#  81]+0.024*[#   1]+0.024*[#  10]+0.024*[#  19]+0.024*[#  28]+
          +0.007*[#  54]+0.007*[#  58]+0.007*[#  62]+0.007*[#  66]+0.007*[#  86]+
          +0.007*[#  90]+0.007*[#  94]+0.007*[#  98]+0.004*[# 105]+0.004*[# 118]+
          +0.004*[# 131]+0.004*[# 144]+0.001*[#   5]+0.001*[#  14]+0.001*[#  23]+
          +0.001*[#  32]+
    |psi|^2 = 0.984
==== e(  57) =     4.06696 eV ==== 
     psi = 0.099*[#  56]+0.098*[#  88]+0.085*[# 123]+0.074*[#  59]+0.074*[#  67]+
          +0.074*[#  91]+0.074*[#  99]+0.038*[# 147]+0.029*[# 109]+0.029*[# 135]+
          +0.028*[# 152]+0.025*[#  60]+0.025*[#  68]+0.025*[#  92]+0.025*[# 100]+
          +0.021*[# 112]+0.021*[# 118]+0.021*[# 138]+0.010*[# 110]+0.010*[# 136]+
          +0.010*[# 149]+0.010*[# 108]+0.010*[# 134]+0.008*[#  61]+0.008*[#  93]+
          +0.007*[# 113]+0.007*[# 139]+0.006*[#  62]+0.006*[#  94]+0.006*[# 114]+
          +0.002*[# 105]+0.002*[# 131]+0.002*[# 144]+
    |psi|^2 = 0.991
==== e(  58) =     4.06728 eV ==== 
     psi = 0.056*[#  55]+0.056*[#  63]+0.056*[#  64]+0.055*[#  87]+0.055*[#  95]+
          +0.055*[#  96]+0.043*[#  60]+0.043*[#  68]+0.043*[#  92]+0.043*[# 100]+
          +0.038*[# 110]+0.038*[# 136]+0.038*[# 149]+0.021*[# 121]+0.021*[# 122]+
          +0.021*[# 148]+0.019*[#  59]+0.019*[#  67]+0.019*[#  91]+0.019*[#  99]+
          +0.017*[# 108]+0.017*[# 134]+0.016*[# 125]+0.016*[# 126]+0.016*[# 151]+
          +0.012*[# 113]+0.012*[# 139]+0.009*[# 105]+0.009*[# 131]+0.009*[# 144]+
          +0.007*[# 109]+0.007*[# 135]+0.007*[#  56]+0.007*[#  88]+0.005*[# 112]+
          +0.005*[# 138]+0.004*[#  53]+0.004*[#  57]+0.004*[#  65]+0.004*[#  85]+
          +0.004*[#  89]+0.004*[#  97]+0.003*[# 147]+0.003*[#  54]+0.003*[#  58]+
          +0.003*[#  66]+0.003*[#  86]+0.003*[#  90]+0.003*[#  98]+0.003*[# 101]+
          +0.003*[# 127]+0.003*[# 140]+0.002*[# 152]+
    |psi|^2 = 0.991
==== e(  59) =     4.06731 eV ==== 
     psi = 0.056*[#  55]+0.056*[#  63]+0.056*[#  64]+0.056*[#  87]+0.056*[#  95]+
          +0.056*[#  96]+0.044*[#  60]+0.044*[#  68]+0.043*[#  92]+0.043*[# 100]+
          +0.038*[# 110]+0.038*[# 136]+0.038*[# 149]+0.022*[# 121]+0.022*[# 122]+
          +0.022*[# 148]+0.019*[#  59]+0.019*[#  67]+0.019*[#  91]+0.019*[#  99]+
          +0.017*[# 108]+0.017*[# 134]+0.016*[# 125]+0.016*[# 126]+0.016*[# 151]+
          +0.012*[# 113]+0.012*[# 139]+0.009*[# 105]+0.009*[# 131]+0.009*[# 144]+
          +0.007*[# 109]+0.007*[# 135]+0.006*[#  56]+0.006*[#  88]+0.005*[# 112]+
          +0.005*[# 138]+0.004*[#  53]+0.004*[#  57]+0.004*[#  65]+0.004*[#  85]+
          +0.004*[#  89]+0.004*[#  97]+0.003*[#  54]+0.003*[#  58]+0.003*[#  66]+
          +0.003*[#  86]+0.003*[#  90]+0.003*[#  98]+0.003*[# 101]+0.003*[# 127]+
          +0.003*[# 140]+0.002*[# 147]+0.002*[# 152]+
    |psi|^2 = 0.991
==== e(  60) =     4.36437 eV ==== 
     psi = 0.074*[#   2]+0.074*[#  11]+0.074*[#  29]+0.067*[#  43]+0.067*[#  44]+
          +0.067*[#  51]+0.067*[#  75]+0.067*[#  76]+0.067*[#  83]+0.053*[#  40]+
          +0.053*[#  48]+0.053*[#  72]+0.053*[#  80]+0.025*[#  39]+0.025*[#  47]+
          +0.025*[#  71]+0.025*[#  79]+0.011*[#  52]+0.011*[#  84]+0.005*[#  20]+
          +0.003*[#  37]+0.003*[#  45]+0.003*[#  49]+0.003*[#  69]+0.003*[#  77]+
          +0.003*[#  81]+
    |psi|^2 = 0.987
==== e(  61) =     4.36440 eV ==== 
     psi = 0.076*[#   2]+0.076*[#  11]+0.076*[#  29]+0.068*[#  43]+0.068*[#  44]+
          +0.068*[#  51]+0.069*[#  75]+0.069*[#  76]+0.068*[#  83]+0.053*[#  40]+
          +0.053*[#  48]+0.053*[#  72]+0.053*[#  80]+0.023*[#  39]+0.023*[#  47]+
          +0.023*[#  71]+0.023*[#  79]+0.008*[#  52]+0.008*[#  84]+0.003*[#  37]+
          +0.003*[#  45]+0.003*[#  49]+0.003*[#  69]+0.003*[#  77]+0.003*[#  81]+
    |psi|^2 = 0.987
==== e(  62) =     4.36451 eV ==== 
     psi = 0.166*[#  20]+0.118*[#  52]+0.118*[#  84]+0.089*[#  39]+0.089*[#  47]+
          +0.089*[#  71]+0.089*[#  79]+0.031*[#  40]+0.031*[#  48]+0.031*[#  72]+
          +0.031*[#  80]+0.021*[#   2]+0.021*[#  11]+0.021*[#  29]+0.007*[#  41]+
          +0.007*[#  73]+0.002*[#  43]+0.002*[#  44]+0.002*[#  51]+0.002*[#  75]+
          +0.002*[#  76]+0.002*[#  83]+0.002*[#   7]+0.001*[#  15]+0.001*[#  33]+
          +0.001*[#  42]+0.001*[#  74]+
    |psi|^2 = 0.987
==== e(  63) =     4.37163 eV ==== 
     psi = 0.074*[# 105]+0.074*[# 118]+0.074*[# 131]+0.074*[# 144]+0.059*[#  54]+
          +0.059*[#  58]+0.059*[#  62]+0.059*[#  66]+0.059*[#  86]+0.059*[#  90]+
          +0.059*[#  94]+0.059*[#  98]+0.012*[#  53]+0.012*[#  57]+0.012*[#  61]+
          +0.012*[#  65]+0.012*[#  85]+0.012*[#  89]+0.012*[#  93]+0.012*[#  97]+
          +0.009*[# 110]+0.009*[# 123]+0.009*[# 136]+0.009*[# 149]+0.005*[#  37]+
          +0.005*[#  41]+0.005*[#  45]+0.005*[#  49]+0.005*[#  69]+0.005*[#  73]+
          +0.005*[#  77]+0.005*[#  81]+0.004*[#  38]+0.004*[#  42]+0.004*[#  46]+
          +0.004*[#  50]+0.004*[#  70]+0.004*[#  74]+0.004*[#  78]+0.004*[#  82]+
          +0.004*[# 101]+0.004*[# 114]+0.004*[# 127]+0.004*[# 140]+0.002*[#   1]+
          +0.002*[#  10]+0.002*[#  19]+0.002*[#  28]+
    |psi|^2 = 0.987
==== e(  64) =     5.51945 eV ==== 
     psi = 0.118*[#  88]+0.117*[#  56]+0.088*[#  91]+0.088*[#  99]+0.088*[#  59]+
          +0.088*[#  67]+0.056*[# 124]+0.045*[# 146]+0.034*[# 106]+0.034*[# 132]+
          +0.029*[#  60]+0.029*[#  68]+0.030*[#  92]+0.030*[# 100]+0.015*[#  61]+
          +0.015*[#  93]+0.011*[# 107]+0.011*[# 133]+0.011*[#  62]+0.010*[#  94]+
          +0.006*[# 111]+0.006*[# 137]+0.006*[# 150]+0.004*[# 115]+0.002*[#  53]+
          +0.002*[#  57]+0.002*[#  65]+0.002*[#  85]+0.002*[#  89]+0.002*[#  97]+
          +0.001*[#  54]+0.001*[#  58]+0.001*[#  66]+0.001*[#  86]+0.001*[#  90]+
          +0.001*[#  98]+
    |psi|^2 = 0.994
==== e(  65) =     5.51972 eV ==== 
     psi = 0.066*[#  87]+0.066*[#  95]+0.066*[#  96]+0.066*[#  55]+0.066*[#  63]+
          +0.066*[#  64]+0.052*[#  92]+0.052*[# 100]+0.051*[#  60]+0.051*[#  68]+
          +0.026*[# 119]+0.026*[# 120]+0.026*[# 145]+0.025*[# 111]+0.025*[# 137]+
          +0.025*[# 150]+0.022*[#  59]+0.022*[#  67]+0.022*[#  91]+0.022*[#  99]+
          +0.020*[# 107]+0.020*[# 133]+0.009*[# 106]+0.009*[# 132]+0.008*[#  56]+
          +0.008*[#  88]+0.007*[#  53]+0.007*[#  57]+0.007*[#  65]+0.007*[#  85]+
          +0.007*[#  89]+0.007*[#  97]+0.005*[#  54]+0.005*[#  58]+0.005*[#  66]+
          +0.005*[#  86]+0.005*[#  90]+0.005*[#  98]+0.003*[# 146]+0.002*[# 102]+
          +0.002*[# 128]+0.002*[# 141]+
    |psi|^2 = 0.994
==== e(  66) =     5.51975 eV ==== 
     psi = 0.066*[#  87]+0.066*[#  95]+0.066*[#  96]+0.066*[#  55]+0.066*[#  63]+
          +0.066*[#  64]+0.052*[#  92]+0.052*[# 100]+0.051*[#  60]+0.051*[#  68]+
          +0.026*[# 119]+0.026*[# 120]+0.026*[# 145]+0.025*[# 111]+0.025*[# 137]+
          +0.025*[# 150]+0.022*[#  59]+0.022*[#  67]+0.022*[#  91]+0.022*[#  99]+
          +0.020*[# 107]+0.020*[# 133]+0.009*[# 106]+0.009*[# 132]+0.008*[#  56]+
          +0.008*[#  88]+0.007*[#  53]+0.007*[#  57]+0.007*[#  65]+0.007*[#  85]+
          +0.007*[#  89]+0.007*[#  97]+0.005*[#  54]+0.005*[#  58]+0.005*[#  66]+
          +0.005*[#  86]+0.005*[#  90]+0.005*[#  98]+0.003*[# 146]+0.002*[# 102]+
          +0.002*[# 128]+0.002*[# 141]+
    |psi|^2 = 0.994
==== e(  67) =     5.75748 eV ==== 
     psi = 0.196*[#  42]+0.196*[#  74]+0.081*[#  41]+0.081*[#  73]+0.038*[#   4]+
          +0.029*[#  12]+0.029*[#  30]+0.026*[#  38]+0.026*[#  46]+0.026*[#  50]+
          +0.026*[#  70]+0.026*[#  78]+0.026*[#  82]+0.019*[#  19]+0.013*[#  62]+
          +0.013*[#  94]+0.011*[#  37]+0.011*[#  45]+0.011*[#  49]+0.011*[#  69]+
          +0.011*[#  77]+0.011*[#  81]+0.010*[#  13]+0.010*[#  31]+0.006*[# 147]+
          +0.005*[# 118]+0.005*[# 109]+0.005*[# 135]+0.002*[#   1]+0.002*[#  10]+
          +0.002*[#  28]+0.002*[#  54]+0.002*[#  58]+0.002*[#  66]+0.002*[#  86]+
          +0.002*[#  90]+0.002*[#  98]+0.002*[# 108]+0.002*[# 134]+0.001*[#  61]+
          +0.001*[#  93]+
    |psi|^2 = 0.989
==== e(  68) =     5.75758 eV ==== 
     psi = 0.091*[#  38]+0.091*[#  46]+0.091*[#  50]+0.090*[#  70]+0.090*[#  78]+
          +0.090*[#  82]+0.037*[#  37]+0.037*[#  45]+0.037*[#  49]+0.037*[#  69]+
          +0.037*[#  77]+0.037*[#  81]+0.022*[#   3]+0.022*[#  21]+0.022*[#  22]+
          +0.017*[#  13]+0.017*[#  31]+0.009*[#   1]+0.009*[#  10]+0.009*[#  28]+
          +0.008*[#  12]+0.008*[#  30]+0.006*[#  54]+0.006*[#  58]+0.006*[#  66]+
          +0.006*[#  86]+0.006*[#  90]+0.006*[#  98]+0.004*[# 121]+0.004*[# 122]+
          +0.004*[# 148]+0.003*[#   4]+0.003*[# 108]+0.003*[# 134]+0.002*[# 105]+
          +0.002*[# 131]+0.002*[# 144]+0.002*[#  42]+0.002*[#  74]+0.001*[# 109]+
          +0.001*[# 135]+
    |psi|^2 = 0.989
==== e(  69) =     5.75764 eV ==== 
     psi = 0.089*[#  38]+0.089*[#  46]+0.089*[#  50]+0.089*[#  70]+0.089*[#  78]+
          +0.089*[#  82]+0.036*[#  37]+0.036*[#  45]+0.036*[#  49]+0.037*[#  69]+
          +0.037*[#  77]+0.037*[#  81]+0.022*[#   3]+0.022*[#  21]+0.022*[#  22]+
          +0.017*[#  13]+0.017*[#  31]+0.009*[#   1]+0.009*[#  10]+0.009*[#  28]+
          +0.008*[#  12]+0.008*[#  30]+0.007*[#  42]+0.007*[#  74]+0.006*[#  54]+
          +0.006*[#  58]+0.006*[#  66]+0.006*[#  86]+0.006*[#  90]+0.006*[#  98]+
          +0.004*[#   4]+0.003*[# 121]+0.003*[# 122]+0.003*[# 148]+0.003*[#  41]+
          +0.003*[#  73]+0.003*[# 108]+0.003*[# 134]+0.002*[# 105]+0.002*[# 131]+
          +0.002*[# 144]+0.001*[# 109]+0.001*[# 135]+
    |psi|^2 = 0.989
==== e(  70) =     6.45078 eV ==== 
     psi = 0.067*[#  54]+0.067*[#  58]+0.067*[#  66]+0.067*[#  86]+0.067*[#  90]+
          +0.067*[#  98]+0.052*[# 105]+0.052*[# 131]+0.052*[# 144]+0.043*[# 121]+
          +0.043*[# 122]+0.043*[# 148]+0.033*[# 108]+0.033*[# 134]+0.014*[# 109]+
          +0.014*[# 135]+0.011*[#  53]+0.011*[#  57]+0.011*[#  65]+0.011*[#  85]+
          +0.011*[#  89]+0.011*[#  97]+0.006*[#  55]+0.006*[#  63]+0.006*[#  64]+
          +0.006*[#  87]+0.006*[#  95]+0.006*[#  96]+0.006*[#  38]+0.006*[#  46]+
          +0.006*[#  50]+0.005*[#  70]+0.005*[#  78]+0.005*[#  82]+0.005*[# 147]+
          +0.005*[#  60]+0.005*[#  68]+0.005*[#  92]+0.005*[# 100]+0.004*[#  37]+
          +0.004*[#  45]+0.004*[#  49]+0.004*[#  69]+0.004*[#  77]+0.004*[#  81]+
          +0.002*[#   3]+0.002*[#  21]+0.002*[#  22]+0.002*[#  13]+0.002*[#  31]+
          +0.002*[#  59]+0.002*[#  67]+0.002*[#  91]+0.002*[#  99]+
    |psi|^2 = 0.989
==== e(  71) =     6.45083 eV ==== 
     psi = 0.066*[#  54]+0.066*[#  58]+0.066*[#  66]+0.066*[#  86]+0.066*[#  90]+
          +0.066*[#  98]+0.052*[# 105]+0.052*[# 131]+0.052*[# 144]+0.043*[# 121]+
          +0.043*[# 122]+0.043*[# 148]+0.033*[# 108]+0.033*[# 134]+0.015*[# 109]+
          +0.015*[# 135]+0.011*[#  53]+0.011*[#  57]+0.011*[#  65]+0.011*[#  85]+
          +0.011*[#  89]+0.011*[#  97]+0.006*[#  55]+0.006*[#  63]+0.006*[#  64]+
          +0.006*[#  87]+0.006*[#  95]+0.006*[#  96]+0.005*[#  38]+0.005*[#  46]+
          +0.005*[#  50]+0.005*[#  70]+0.005*[#  78]+0.005*[#  82]+0.005*[# 147]+
          +0.004*[#  60]+0.004*[#  68]+0.005*[#  92]+0.005*[# 100]+0.004*[#  37]+
          +0.004*[#  45]+0.004*[#  49]+0.004*[#  69]+0.004*[#  77]+0.004*[#  81]+
          +0.002*[#   3]+0.002*[#  21]+0.002*[#  22]+0.002*[#  31]+0.002*[#  59]+
          +0.002*[#  67]+0.002*[#  91]+0.002*[#  99]+0.002*[#  13]+
    |psi|^2 = 0.989
==== e(  72) =     6.45111 eV ==== 
     psi = 0.149*[#  62]+0.149*[#  94]+0.117*[# 118]+0.076*[# 147]+0.057*[# 109]+
          +0.057*[# 135]+0.024*[#  61]+0.024*[#  93]+0.019*[# 108]+0.019*[# 134]+
          +0.017*[#  54]+0.017*[#  58]+0.017*[#  66]+0.017*[#  86]+0.017*[#  90]+
          +0.017*[#  98]+0.013*[# 105]+0.013*[# 131]+0.013*[# 144]+0.012*[#  42]+
          +0.012*[#  74]+0.010*[#  88]+0.010*[#  56]+0.008*[#  41]+0.008*[#  73]+
          +0.008*[#  91]+0.008*[#  99]+0.008*[#  59]+0.008*[#  67]+0.004*[#   4]+
          +0.003*[#  12]+0.003*[#  30]+0.003*[#  53]+0.003*[#  57]+0.003*[#  65]+
          +0.003*[#  85]+0.003*[#  89]+0.003*[#  60]+0.003*[#  68]+0.003*[#  92]+
          +0.003*[#  97]+0.003*[# 100]+0.002*[# 123]+0.001*[#  38]+0.001*[#  46]+
          +0.001*[#  50]+0.001*[#  70]+0.001*[#  78]+0.001*[#  82]+0.001*[# 143]+
          +0.001*[#  13]+0.001*[#  31]+
    |psi|^2 = 0.989
==== e(  73) =     7.28643 eV ==== 
     psi = 0.093*[#  38]+0.093*[#  42]+0.093*[#  46]+0.093*[#  50]+0.093*[#  70]+
          +0.093*[#  74]+0.093*[#  78]+0.093*[#  82]+0.024*[#  54]+0.024*[#  58]+
          +0.024*[#  62]+0.024*[#  66]+0.024*[#  86]+0.024*[#  90]+0.024*[#  94]+
          +0.024*[#  98]+0.004*[# 111]+0.004*[# 124]+0.004*[# 137]+0.004*[# 150]+
          +0.003*[#   2]+0.003*[#  11]+0.003*[#  20]+0.003*[#  29]+0.002*[#  37]+
          +0.002*[#  41]+0.002*[#  45]+0.002*[#  49]+0.002*[#  69]+0.002*[#  73]+
          +0.002*[#  77]+0.002*[#  81]+0.001*[#  53]+0.001*[#  57]+0.001*[#  61]+
          +0.001*[#  65]+0.001*[#  85]+0.001*[#  89]+0.001*[#  93]+0.001*[#  97]+
    |psi|^2 = 0.993
==== e(  74) =     7.61072 eV ==== 
     psi = 0.076*[# 119]+0.076*[# 120]+0.076*[# 146]+0.070*[# 106]+0.070*[# 132]+
          +0.057*[# 107]+0.057*[# 133]+0.051*[# 145]+0.033*[#  56]+0.033*[#  63]+
          +0.033*[#  64]+0.033*[#  88]+0.033*[#  95]+0.033*[#  96]+0.030*[#  59]+
          +0.030*[#  67]+0.030*[#  91]+0.030*[#  99]+0.025*[#  60]+0.025*[#  68]+
          +0.025*[#  92]+0.025*[# 100]+0.022*[#  55]+0.022*[#  87]+
    |psi|^2 = 0.995
==== e(  75) =     7.61072 eV ==== 
     psi = 0.133*[# 145]+0.106*[# 107]+0.106*[# 133]+0.058*[#  55]+0.058*[#  87]+
          +0.053*[# 106]+0.053*[# 132]+0.046*[#  60]+0.046*[#  68]+0.046*[#  92]+
          +0.046*[# 100]+0.027*[# 119]+0.027*[# 120]+0.027*[# 146]+0.023*[#  59]+
          +0.023*[#  67]+0.023*[#  91]+0.023*[#  99]+0.012*[#  56]+0.012*[#  63]+
          +0.012*[#  64]+0.012*[#  88]+0.012*[#  95]+0.012*[#  96]+
    |psi|^2 = 0.995
==== e(  76) =     7.61076 eV ==== 
     psi = 0.097*[# 119]+0.097*[# 120]+0.097*[# 146]+0.077*[# 106]+0.077*[# 132]+
          +0.042*[#  56]+0.042*[#  63]+0.042*[#  64]+0.042*[#  88]+0.042*[#  95]+
          +0.042*[#  96]+0.036*[# 107]+0.036*[# 133]+0.033*[#  59]+0.033*[#  67]+
          +0.033*[#  91]+0.033*[#  99]+0.016*[#  60]+0.016*[#  68]+0.016*[# 145]+
          +0.016*[#  92]+0.016*[# 100]+0.007*[#  55]+0.007*[#  87]+
    |psi|^2 = 0.995
==== e(  77) =     8.02711 eV ==== 
     psi = 0.062*[#   4]+0.062*[#  21]+0.062*[#  22]+0.061*[#  43]+0.061*[#  44]+
          +0.061*[#  52]+0.061*[#  75]+0.061*[#  76]+0.061*[#  84]+0.048*[#  12]+
          +0.048*[#  30]+0.048*[#  39]+0.048*[#  47]+0.048*[#  71]+0.048*[#  79]+
          +0.021*[#  13]+0.021*[#  31]+0.021*[#  40]+0.021*[#  48]+0.021*[#  72]+
          +0.021*[#  80]+0.008*[#   3]+0.008*[#  51]+0.007*[#  83]+
    |psi|^2 = 0.992
==== e(  78) =     8.02713 eV ==== 
     psi = 0.056*[#   4]+0.056*[#  21]+0.056*[#  22]+0.055*[#  43]+0.055*[#  44]+
          +0.055*[#  52]+0.055*[#  75]+0.055*[#  76]+0.055*[#  84]+0.046*[#  12]+
          +0.046*[#  30]+0.046*[#  39]+0.046*[#  47]+0.046*[#  71]+0.046*[#  79]+
          +0.027*[#  13]+0.027*[#  31]+0.027*[#  40]+0.027*[#  48]+0.027*[#  72]+
          +0.027*[#  80]+0.018*[#   3]+0.018*[#  51]+0.018*[#  83]+
    |psi|^2 = 0.992
==== e(  79) =     8.02716 eV ==== 
     psi = 0.099*[#   3]+0.098*[#  51]+0.098*[#  83]+0.076*[#  13]+0.076*[#  31]+
          +0.075*[#  40]+0.075*[#  48]+0.075*[#  72]+0.075*[#  80]+0.030*[#  12]+
          +0.030*[#  30]+0.030*[#  39]+0.030*[#  47]+0.030*[#  71]+0.030*[#  79]+
          +0.007*[#   4]+0.007*[#  21]+0.007*[#  22]+0.007*[#  43]+0.007*[#  44]+
          +0.007*[#  52]+0.007*[#  75]+0.007*[#  76]+0.007*[#  84]+
    |psi|^2 = 0.992
==== e(  80) =     8.18889 eV ==== 
     psi = 0.087*[# 108]+0.087*[# 109]+0.087*[# 121]+0.087*[# 122]+0.087*[# 134]+
          +0.087*[# 135]+0.087*[# 147]+0.087*[# 148]+0.018*[#  55]+0.018*[#  56]+
          +0.018*[#  59]+0.018*[#  60]+0.018*[#  63]+0.018*[#  64]+0.018*[#  67]+
          +0.018*[#  68]+0.018*[#  87]+0.018*[#  88]+0.018*[#  91]+0.018*[#  92]+
          +0.018*[#  95]+0.018*[#  96]+0.018*[#  99]+0.018*[# 100]+
    |psi|^2 = 0.992
==== e(  81) =     8.18891 eV ==== 
     psi = 0.087*[# 108]+0.087*[# 109]+0.087*[# 121]+0.087*[# 122]+0.087*[# 134]+
          +0.087*[# 135]+0.087*[# 147]+0.087*[# 148]+0.018*[#  55]+0.018*[#  56]+
          +0.018*[#  59]+0.018*[#  60]+0.018*[#  63]+0.018*[#  64]+0.018*[#  67]+
          +0.018*[#  68]+0.018*[#  87]+0.018*[#  88]+0.018*[#  91]+0.018*[#  92]+
          +0.018*[#  95]+0.018*[#  96]+0.018*[#  99]+0.018*[# 100]+
    |psi|^2 = 0.992
==== e(  82) =     8.98502 eV ==== 
     psi = 0.111*[#  54]+0.111*[#  58]+0.111*[#  66]+0.110*[#  86]+0.110*[#  90]+
          +0.110*[#  98]+0.025*[# 119]+0.025*[# 120]+0.025*[# 145]+0.020*[# 107]+
          +0.020*[# 133]+0.012*[#  55]+0.012*[#  63]+0.012*[#  64]+0.012*[#  87]+
          +0.012*[#  95]+0.012*[#  96]+0.009*[#  60]+0.009*[#  68]+0.009*[#  92]+
          +0.009*[# 100]+0.008*[# 106]+0.008*[# 132]+0.008*[#  53]+0.008*[#  57]+
          +0.008*[#  65]+0.008*[#  85]+0.008*[#  89]+0.008*[#  97]+0.004*[#  59]+
          +0.004*[#  67]+0.004*[#  91]+0.004*[#  99]+0.003*[# 146]+0.002*[#  38]+
          +0.002*[#  46]+0.002*[#  50]+0.002*[#  70]+0.002*[#  78]+0.002*[#  82]+
          +0.001*[#  56]+0.001*[#  88]+0.001*[# 111]+0.001*[# 137]+0.001*[# 150]+
    |psi|^2 = 0.994
==== e(  83) =     8.98505 eV ==== 
     psi = 0.111*[#  54]+0.111*[#  58]+0.111*[#  66]+0.110*[#  86]+0.110*[#  90]+
          +0.110*[#  98]+0.025*[# 119]+0.025*[# 120]+0.025*[# 145]+0.020*[# 107]+
          +0.020*[# 133]+0.012*[#  55]+0.012*[#  63]+0.012*[#  64]+0.012*[#  87]+
          +0.012*[#  95]+0.012*[#  96]+0.009*[#  60]+0.009*[#  68]+0.009*[#  92]+
          +0.009*[# 100]+0.008*[# 106]+0.008*[# 132]+0.008*[#  53]+0.008*[#  57]+
          +0.008*[#  65]+0.008*[#  85]+0.008*[#  89]+0.008*[#  97]+0.004*[#  59]+
          +0.004*[#  67]+0.004*[#  91]+0.004*[#  99]+0.003*[# 146]+0.002*[#  38]+
          +0.002*[#  46]+0.002*[#  50]+0.002*[#  70]+0.002*[#  78]+0.002*[#  82]+
          +0.001*[#  56]+0.001*[#  88]+0.001*[# 111]+0.001*[# 137]+0.001*[# 150]+
    |psi|^2 = 0.994
==== e(  84) =     8.98544 eV ==== 
     psi = 0.249*[#  62]+0.248*[#  94]+0.045*[# 146]+0.034*[# 106]+0.034*[# 132]+
          +0.028*[#  54]+0.028*[#  58]+0.028*[#  66]+0.028*[#  86]+0.028*[#  90]+
          +0.028*[#  98]+0.022*[#  56]+0.022*[#  88]+0.018*[#  61]+0.018*[#  93]+
          +0.016*[#  59]+0.016*[#  67]+0.016*[#  91]+0.016*[#  99]+0.011*[# 107]+
          +0.011*[# 133]+0.005*[#  60]+0.005*[#  68]+0.005*[#  92]+0.005*[# 100]+
          +0.005*[#  42]+0.005*[#  74]+0.003*[# 124]+0.002*[#  53]+0.002*[#  57]+
          +0.002*[#  65]+0.002*[#  85]+0.002*[#  89]+0.002*[#  97]+0.001*[# 115]+
          +0.001*[#  20]+
    |psi|^2 = 0.994
==== e(  85) =     9.44615 eV ==== 
     psi = 0.098*[#  62]+0.098*[#  94]+0.097*[#  54]+0.097*[#  58]+0.097*[#  66]+
          +0.097*[#  86]+0.097*[#  90]+0.097*[#  98]+0.022*[#  38]+0.022*[#  42]+
          +0.022*[#  46]+0.022*[#  50]+0.022*[#  70]+0.022*[#  74]+0.022*[#  78]+
          +0.022*[#  82]+0.003*[#   2]+0.003*[#  11]+0.003*[#  20]+0.003*[#  29]+
          +0.002*[#  37]+0.002*[#  41]+0.002*[#  45]+0.002*[#  49]+0.002*[#  69]+
          +0.002*[#  73]+0.002*[#  77]+0.002*[#  81]+
    |psi|^2 = 0.990
==== e(  86) =     9.61502 eV ==== 
     psi = 0.076*[# 106]+0.076*[# 107]+0.076*[# 119]+0.076*[# 120]+0.076*[# 132]+
          +0.076*[# 133]+0.076*[# 145]+0.076*[# 146]+0.024*[#  55]+0.024*[#  56]+
          +0.024*[#  59]+0.024*[#  60]+0.024*[#  63]+0.024*[#  64]+0.024*[#  67]+
          +0.024*[#  68]+0.024*[#  87]+0.024*[#  88]+0.024*[#  91]+0.024*[#  92]+
          +0.024*[#  95]+0.024*[#  96]+0.024*[#  99]+0.024*[# 100]+
    |psi|^2 = 0.990
==== e(  87) =     9.61508 eV ==== 
     psi = 0.076*[# 106]+0.076*[# 107]+0.076*[# 119]+0.076*[# 120]+0.076*[# 132]+
          +0.076*[# 133]+0.076*[# 145]+0.076*[# 146]+0.024*[#  55]+0.024*[#  56]+
          +0.024*[#  59]+0.024*[#  60]+0.024*[#  63]+0.024*[#  64]+0.024*[#  67]+
          +0.024*[#  68]+0.024*[#  87]+0.024*[#  88]+0.024*[#  91]+0.024*[#  92]+
          +0.024*[#  95]+0.024*[#  96]+0.024*[#  99]+0.024*[# 100]+
    |psi|^2 = 0.990
==== e(  88) =     9.97517 eV ==== 
     psi = 0.174*[# 118]+0.116*[#  94]+0.116*[#  62]+0.058*[# 147]+0.044*[# 109]+
          +0.044*[# 135]+0.041*[# 152]+0.031*[# 112]+0.031*[# 138]+0.024*[# 105]+
          +0.024*[# 131]+0.024*[# 144]+0.016*[#  86]+0.016*[#  90]+0.016*[#  98]+
          +0.016*[#  54]+0.016*[#  58]+0.016*[#  66]+0.016*[# 108]+0.016*[# 134]+
          +0.012*[#  19]+0.011*[# 113]+0.011*[# 139]+0.008*[#  61]+0.008*[#  93]+
          +0.004*[#  52]+0.004*[#  84]+0.003*[#  39]+0.003*[#  47]+0.003*[#  71]+
          +0.003*[#  79]+0.002*[# 121]+0.002*[# 122]+0.002*[# 148]+0.002*[#   1]+
          +0.002*[#  10]+0.002*[#  28]+0.002*[#  56]+0.002*[#  88]+0.002*[# 143]+
          +0.002*[# 125]+0.002*[# 126]+0.002*[# 151]+0.001*[#   4]+0.001*[#  59]+
          +0.001*[#  67]+0.001*[#  91]+0.001*[#  99]+0.001*[# 103]+0.001*[# 129]+
          +0.001*[#  40]+0.001*[#  48]+0.001*[#  53]+0.001*[#  57]+0.001*[#  65]+
          +0.001*[#  72]+0.001*[#  80]+0.001*[#  85]+0.001*[#  89]+0.001*[#  97]+
    |psi|^2 = 0.976
==== e(  89) =     9.97523 eV ==== 
     psi = 0.079*[# 105]+0.079*[# 131]+0.079*[# 144]+0.053*[#  86]+0.053*[#  90]+
          +0.053*[#  98]+0.052*[#  54]+0.052*[#  58]+0.052*[#  66]+0.033*[# 121]+
          +0.033*[# 122]+0.033*[# 148]+0.026*[# 108]+0.026*[# 134]+0.023*[# 125]+
          +0.023*[# 126]+0.023*[# 151]+0.018*[# 113]+0.018*[# 139]+0.014*[# 109]+
          +0.014*[# 135]+0.011*[# 118]+0.010*[# 112]+0.010*[# 138]+0.008*[#  62]+
          +0.008*[#  94]+0.007*[# 147]+0.005*[#   1]+0.005*[#  10]+0.005*[#  28]+
          +0.005*[# 152]+0.003*[#  53]+0.003*[#  57]+0.003*[#  65]+0.003*[#  85]+
          +0.003*[#  89]+0.003*[#  97]+0.002*[#  43]+0.002*[#  44]+0.002*[#  51]+
          +0.002*[#  75]+0.002*[#  76]+0.002*[#  83]+0.002*[#  40]+0.002*[#  48]+
          +0.002*[#  72]+0.002*[#  80]+
    |psi|^2 = 0.976
==== e(  90) =     9.97525 eV ==== 
     psi = 0.083*[# 105]+0.083*[# 131]+0.083*[# 144]+0.055*[#  86]+0.055*[#  90]+
          +0.055*[#  98]+0.055*[#  54]+0.055*[#  58]+0.055*[#  66]+0.035*[# 121]+
          +0.035*[# 122]+0.035*[# 148]+0.027*[# 108]+0.027*[# 134]+0.024*[# 125]+
          +0.024*[# 126]+0.024*[# 151]+0.019*[# 113]+0.019*[# 139]+0.012*[# 109]+
          +0.012*[# 135]+0.008*[# 112]+0.008*[# 138]+0.006*[#   1]+0.006*[#  10]+
          +0.006*[#  28]+0.004*[# 147]+0.004*[#  53]+0.004*[#  57]+0.004*[#  65]+
          +0.004*[#  85]+0.004*[#  89]+0.004*[#  97]+0.003*[# 152]+0.002*[#  43]+
          +0.002*[#  44]+0.002*[#  51]+0.002*[#  75]+0.002*[#  76]+0.002*[#  83]+
          +0.002*[#  40]+0.002*[#  48]+0.002*[#  72]+0.002*[#  80]+
    |psi|^2 = 0.976
==== e(  91) =    10.12249 eV ==== 
     psi = 0.142*[#  87]+0.141*[#  55]+0.106*[#  92]+0.106*[# 100]+0.106*[#  60]+
          +0.106*[#  68]+0.036*[#  59]+0.036*[#  67]+0.036*[#  91]+0.036*[#  99]+
          +0.025*[# 151]+0.021*[# 148]+0.019*[# 113]+0.019*[# 139]+0.016*[# 108]+
          +0.016*[# 134]+0.006*[# 112]+0.006*[# 138]+0.005*[# 109]+0.005*[# 135]+
    |psi|^2 = 0.995
==== e(  92) =    10.12263 eV ==== 
     psi = 0.080*[#  56]+0.080*[#  63]+0.080*[#  64]+0.080*[#  88]+0.080*[#  95]+
          +0.080*[#  96]+0.062*[#  59]+0.062*[#  67]+0.062*[#  91]+0.062*[#  99]+
          +0.027*[#  60]+0.027*[#  68]+0.027*[#  92]+0.027*[# 100]+0.014*[# 125]+
          +0.014*[# 126]+0.014*[# 152]+0.012*[# 121]+0.012*[# 122]+0.012*[# 147]+
          +0.011*[# 112]+0.011*[# 138]+0.009*[# 109]+0.009*[# 135]+0.009*[#  55]+
          +0.009*[#  87]+0.005*[# 113]+0.005*[# 139]+0.004*[# 108]+0.004*[# 134]+
          +0.002*[# 151]+0.001*[# 148]+
    |psi|^2 = 0.995
==== e(  93) =    10.12266 eV ==== 
     psi = 0.080*[#  56]+0.080*[#  63]+0.080*[#  64]+0.080*[#  88]+0.080*[#  95]+
          +0.080*[#  96]+0.062*[#  59]+0.062*[#  67]+0.062*[#  91]+0.062*[#  99]+
          +0.027*[#  60]+0.027*[#  68]+0.027*[#  92]+0.027*[# 100]+0.014*[# 125]+
          +0.014*[# 126]+0.014*[# 152]+0.012*[# 121]+0.012*[# 122]+0.012*[# 147]+
          +0.011*[# 112]+0.011*[# 138]+0.010*[#  55]+0.010*[#  87]+0.009*[# 109]+
          +0.009*[# 135]+0.005*[# 113]+0.005*[# 139]+0.004*[# 108]+0.004*[# 134]+
          +0.002*[# 151]+0.001*[# 148]+
    |psi|^2 = 0.995
==== e(  94) =    10.16061 eV ==== 
     psi = 0.351*[#  74]+0.351*[#  42]+0.040*[#  38]+0.040*[#  46]+0.040*[#  50]+
          +0.040*[#  70]+0.040*[#  78]+0.040*[#  82]+0.004*[# 146]+0.004*[#  20]+
          +0.003*[# 106]+0.003*[# 132]+0.002*[#   7]+0.002*[#  61]+0.002*[#  93]+
          +0.002*[#  15]+0.002*[#  33]+0.002*[#  52]+0.002*[#  84]+0.001*[#  39]+
          +0.001*[#  47]+0.001*[#  62]+0.001*[#  71]+0.001*[#  79]+0.001*[#  94]+
          +0.001*[# 124]+0.001*[# 107]+0.001*[# 133]+
    |psi|^2 = 0.992
==== e(  95) =    10.16076 eV ==== 
     psi = 0.157*[#  38]+0.157*[#  46]+0.157*[#  50]+0.157*[#  70]+0.157*[#  78]+
          +0.157*[#  82]+0.002*[# 119]+0.002*[# 120]+0.002*[# 145]+0.002*[#   2]+
          +0.002*[#  11]+0.002*[#  29]+0.002*[# 107]+0.002*[# 133]+0.001*[#   6]+
          +0.001*[#  24]+0.001*[#  25]+
    |psi|^2 = 0.992
==== e(  96) =    10.16081 eV ==== 
     psi = 0.156*[#  38]+0.156*[#  46]+0.156*[#  50]+0.156*[#  70]+0.156*[#  78]+
          +0.156*[#  82]+0.003*[#  42]+0.003*[#  74]+0.002*[# 119]+0.002*[# 120]+
          +0.002*[# 145]+0.002*[#   2]+0.002*[#  11]+0.002*[#  29]+0.002*[# 107]+
          +0.002*[# 133]+0.001*[#   6]+0.001*[#  24]+0.001*[#  25]+
    |psi|^2 = 0.992
==== e(  97) =    10.56177 eV ==== 
     psi = 0.091*[#  43]+0.091*[#  44]+0.091*[#  52]+0.091*[#  75]+0.091*[#  76]+
          +0.091*[#  84]+0.071*[#  39]+0.071*[#  47]+0.071*[#  71]+0.071*[#  79]+
          +0.031*[#  40]+0.031*[#  48]+0.031*[#  72]+0.031*[#  80]+0.011*[#  51]+
          +0.011*[#  83]+0.002*[#   7]+0.002*[#  24]+0.002*[#  25]+0.001*[#  15]+
          +0.001*[#  33]+
    |psi|^2 = 0.987
==== e(  98) =    10.56179 eV ==== 
     psi = 0.088*[#  43]+0.088*[#  44]+0.088*[#  52]+0.088*[#  75]+0.088*[#  76]+
          +0.088*[#  84]+0.070*[#  39]+0.070*[#  47]+0.070*[#  71]+0.070*[#  79]+
          +0.034*[#  40]+0.034*[#  48]+0.034*[#  72]+0.034*[#  80]+0.016*[#  51]+
          +0.016*[#  83]+0.002*[#   7]+0.002*[#  24]+0.002*[#  25]+0.001*[#  15]+
          +0.001*[#  33]+
    |psi|^2 = 0.987
==== e(  99) =    10.56183 eV ==== 
     psi = 0.156*[#  51]+0.156*[#  83]+0.118*[#  40]+0.118*[#  48]+0.118*[#  72]+
          +0.118*[#  80]+0.042*[#  39]+0.042*[#  47]+0.042*[#  71]+0.042*[#  79]+
          +0.004*[#  43]+0.004*[#  44]+0.004*[#  52]+0.004*[#  75]+0.004*[#  76]+
          +0.004*[#  84]+0.003*[#   6]+0.002*[#  16]+0.002*[#  34]+
    |psi|^2 = 0.987
==== e( 100) =    10.85670 eV ==== 
     psi = 0.150*[# 105]+0.150*[# 118]+0.150*[# 131]+0.150*[# 144]+0.038*[#  86]+
          +0.038*[#  90]+0.038*[#  94]+0.038*[#  98]+0.038*[#  54]+0.038*[#  58]+
          +0.038*[#  62]+0.038*[#  66]+0.005*[#   1]+0.005*[#  10]+0.005*[#  19]+
          +0.005*[#  28]+0.002*[#  53]+0.002*[#  57]+0.002*[#  61]+0.002*[#  65]+
          +0.002*[#  85]+0.002*[#  89]+0.002*[#  93]+0.002*[#  97]+0.002*[#  37]+
          +0.002*[#  41]+0.002*[#  45]+0.002*[#  49]+0.002*[#  69]+0.002*[#  73]+
          +0.002*[#  77]+0.002*[#  81]+0.001*[#  38]+0.001*[#  42]+0.001*[#  46]+
          +0.001*[#  50]+0.001*[#  70]+0.001*[#  74]+0.001*[#  78]+0.001*[#  82]+
    |psi|^2 = 0.964
==== e( 101) =    10.96338 eV ==== 
     psi = 0.053*[#  39]+0.053*[#  40]+0.053*[#  43]+0.053*[#  44]+0.053*[#  47]+
          +0.053*[#  48]+0.053*[#  51]+0.053*[#  52]+0.053*[#  71]+0.053*[#  72]+
          +0.053*[#  75]+0.053*[#  76]+0.053*[#  79]+0.053*[#  80]+0.053*[#  83]+
          +0.053*[#  84]+0.016*[#   3]+0.016*[#   4]+0.016*[#  12]+0.016*[#  13]+
          +0.016*[#  21]+0.016*[#  22]+0.016*[#  30]+0.016*[#  31]+
    |psi|^2 = 0.977
==== e( 102) =    10.96345 eV ==== 
     psi = 0.053*[#  39]+0.053*[#  40]+0.053*[#  43]+0.053*[#  44]+0.053*[#  47]+
          +0.053*[#  48]+0.053*[#  51]+0.053*[#  52]+0.053*[#  71]+0.053*[#  72]+
          +0.053*[#  75]+0.053*[#  76]+0.053*[#  79]+0.053*[#  80]+0.053*[#  83]+
          +0.053*[#  84]+0.016*[#   3]+0.016*[#   4]+0.016*[#  12]+0.016*[#  13]+
          +0.016*[#  21]+0.016*[#  22]+0.016*[#  30]+0.016*[#  31]+
    |psi|^2 = 0.977
==== e( 103) =    11.26617 eV ==== 
     psi = 0.121*[#   1]+0.121*[#  10]+0.121*[#  28]+0.042*[#  43]+0.042*[#  44]+
          +0.042*[#  51]+0.042*[#  75]+0.042*[#  76]+0.042*[#  83]+0.033*[#  40]+
          +0.033*[#  48]+0.033*[#  72]+0.033*[#  80]+0.017*[#  39]+0.017*[#  47]+
          +0.017*[#  71]+0.017*[#  79]+0.015*[#  19]+0.009*[#  52]+0.009*[#  84]+
          +0.007*[#   3]+0.007*[#  21]+0.007*[#  22]+0.005*[#  13]+0.005*[#  31]+
          +0.005*[# 105]+0.005*[# 131]+0.005*[# 144]+0.004*[# 125]+0.004*[# 126]+
          +0.004*[# 151]+0.003*[# 113]+0.003*[# 139]+0.003*[#  12]+0.003*[#  30]+
          +0.002*[#  54]+0.002*[#  58]+0.002*[#  66]+0.002*[#  86]+0.002*[#  90]+
          +0.002*[#  98]+0.002*[#  53]+0.002*[#  57]+0.002*[#  65]+0.002*[#  85]+
          +0.002*[#  89]+0.002*[#  97]+0.002*[# 112]+0.002*[# 138]+0.001*[#   4]+
    |psi|^2 = 0.952
==== e( 104) =    11.26622 eV ==== 
     psi = 0.124*[#   1]+0.124*[#  10]+0.124*[#  28]+0.043*[#  43]+0.043*[#  44]+
          +0.043*[#  51]+0.043*[#  75]+0.043*[#  76]+0.043*[#  83]+0.034*[#  40]+
          +0.034*[#  48]+0.034*[#  72]+0.034*[#  80]+0.016*[#  39]+0.016*[#  47]+
          +0.016*[#  71]+0.016*[#  79]+0.007*[#   3]+0.007*[#  21]+0.007*[#  22]+
          +0.006*[#  52]+0.006*[#  84]+0.006*[#  19]+0.005*[#  13]+0.005*[#  31]+
          +0.005*[# 105]+0.005*[# 131]+0.005*[# 144]+0.004*[# 125]+0.004*[# 126]+
          +0.004*[# 151]+0.003*[# 113]+0.003*[# 139]+0.003*[#  12]+0.003*[#  30]+
          +0.002*[#  54]+0.002*[#  58]+0.002*[#  66]+0.002*[#  86]+0.002*[#  90]+
          +0.002*[#  98]+0.002*[#  53]+0.002*[#  57]+0.002*[#  65]+0.002*[#  85]+
          +0.002*[#  89]+0.002*[#  97]+0.002*[# 112]+0.002*[# 138]+0.001*[#   4]+
    |psi|^2 = 0.952
==== e( 105) =    11.26632 eV ==== 
     psi = 0.263*[#  19]+0.072*[#  52]+0.072*[#  84]+0.055*[#  39]+0.055*[#  47]+
          +0.055*[#  71]+0.055*[#  79]+0.039*[#   1]+0.039*[#  10]+0.039*[#  28]+
          +0.021*[#  40]+0.021*[#  48]+0.021*[#  72]+0.021*[#  80]+0.012*[#   4]+
          +0.011*[# 118]+0.009*[#  12]+0.009*[#  30]+0.007*[# 152]+0.005*[# 112]+
          +0.005*[# 138]+0.004*[#  62]+0.004*[#  94]+0.003*[#  13]+0.003*[#  31]+
          +0.003*[#  61]+0.003*[#  93]+0.003*[#  43]+0.003*[#  44]+0.003*[#  51]+
          +0.003*[#  75]+0.003*[#  76]+0.003*[#  83]+0.002*[# 113]+0.002*[# 139]+
          +0.002*[# 105]+0.002*[# 131]+0.002*[# 144]+0.001*[# 123]+
    |psi|^2 = 0.952
==== e( 106) =    12.01322 eV ==== 
     psi = 0.061*[#  71]+0.061*[#  72]+0.061*[#  75]+0.061*[#  76]+0.061*[#  79]+
          +0.061*[#  80]+0.061*[#  83]+0.061*[#  84]+0.061*[#  39]+0.061*[#  40]+
          +0.061*[#  43]+0.061*[#  44]+0.061*[#  47]+0.061*[#  48]+0.061*[#  51]+
          +0.061*[#  52]+
    |psi|^2 = 0.985
==== e( 107) =    12.01326 eV ==== 
     psi = 0.061*[#  71]+0.061*[#  72]+0.061*[#  75]+0.061*[#  76]+0.061*[#  79]+
          +0.061*[#  80]+0.061*[#  83]+0.061*[#  84]+0.061*[#  39]+0.061*[#  40]+
          +0.061*[#  43]+0.061*[#  44]+0.061*[#  47]+0.061*[#  48]+0.061*[#  51]+
          +0.061*[#  52]+
    |psi|^2 = 0.985
==== e( 108) =    13.35466 eV ==== 
     psi = 0.045*[#   3]+0.045*[#  21]+0.045*[#  22]+0.040*[#  13]+0.040*[#  31]+
          +0.031*[#  38]+0.031*[#  46]+0.031*[#  50]+0.031*[#  70]+0.031*[#  78]+
          +0.031*[#  82]+0.029*[#  12]+0.029*[#  30]+0.024*[#   4]+0.018*[#   1]+
          +0.018*[#  10]+0.018*[#  28]+0.015*[#  42]+0.015*[#  74]+0.014*[#  37]+
          +0.014*[#  45]+0.014*[#  49]+0.014*[#  69]+0.014*[#  77]+0.014*[#  81]+
          +0.009*[#  19]+0.007*[#  41]+0.007*[#  73]+
    |psi|^2 = 0.699
==== e( 109) =    13.35468 eV ==== 
     psi = 0.052*[#   4]+0.046*[#  12]+0.046*[#  30]+0.040*[#  42]+0.040*[#  74]+
          +0.034*[#  13]+0.034*[#  31]+0.028*[#   3]+0.028*[#  21]+0.028*[#  22]+
          +0.024*[#  19]+0.023*[#  38]+0.023*[#  46]+0.023*[#  50]+0.023*[#  70]+
          +0.023*[#  78]+0.023*[#  82]+0.018*[#  41]+0.018*[#  73]+0.014*[#   1]+
          +0.014*[#  10]+0.014*[#  28]+0.010*[#  37]+0.010*[#  45]+0.010*[#  49]+
          +0.010*[#  69]+0.010*[#  77]+0.010*[#  81]+
    |psi|^2 = 0.699
==== e( 110) =    13.35476 eV ==== 
     psi = 0.038*[#   3]+0.038*[#  21]+0.038*[#  22]+0.038*[#  13]+0.038*[#  31]+
          +0.036*[#  12]+0.036*[#  30]+0.036*[#   4]+0.028*[#  38]+0.028*[#  46]+
          +0.028*[#  50]+0.028*[#  70]+0.028*[#  78]+0.028*[#  82]+0.026*[#  42]+
          +0.026*[#  74]+0.016*[#   1]+0.016*[#  10]+0.016*[#  28]+0.015*[#  19]+
          +0.013*[#  37]+0.013*[#  45]+0.013*[#  49]+0.013*[#  69]+0.013*[#  77]+
          +0.013*[#  81]+0.012*[#  41]+0.012*[#  73]+
    |psi|^2 = 0.699
==== e( 111) =    13.86061 eV ==== 
     psi = 0.174*[# 121]+0.174*[# 122]+0.174*[# 147]+0.135*[# 109]+0.135*[# 135]+
          +0.059*[# 108]+0.059*[# 134]+0.020*[# 148]+0.006*[#  56]+0.006*[#  63]+
          +0.006*[#  64]+0.006*[#  88]+0.005*[#  95]+0.005*[#  96]+0.004*[#  59]+
          +0.004*[#  67]+0.004*[#  91]+0.004*[#  99]+0.002*[#  60]+0.002*[#  68]+
          +0.002*[#  92]+0.002*[# 100]+
    |psi|^2 = 0.993
==== e( 112) =    13.86063 eV ==== 
     psi = 0.174*[# 121]+0.174*[# 122]+0.174*[# 147]+0.136*[# 109]+0.136*[# 135]+
          +0.058*[# 108]+0.058*[# 134]+0.019*[# 148]+0.006*[#  56]+0.006*[#  63]+
          +0.006*[#  64]+0.006*[#  88]+0.006*[#  95]+0.006*[#  96]+0.004*[#  59]+
          +0.004*[#  67]+0.004*[#  91]+0.004*[#  99]+0.002*[#  60]+0.002*[#  68]+
          +0.002*[#  92]+0.002*[# 100]+
    |psi|^2 = 0.993
==== e( 113) =    13.86084 eV ==== 
     psi = 0.309*[# 148]+0.232*[# 108]+0.232*[# 134]+0.078*[# 109]+0.078*[# 135]+
          +0.010*[#  55]+0.010*[#  87]+0.007*[#  60]+0.007*[#  68]+0.007*[#  92]+
          +0.007*[# 100]+0.002*[#  59]+0.002*[#  67]+0.002*[#  91]+0.002*[#  99]+
          +0.001*[# 151]+0.001*[# 113]+0.001*[# 139]+
    |psi|^2 = 0.993
==== e( 114) =    13.89568 eV ==== 
     psi = 0.108*[#   1]+0.108*[#  10]+0.108*[#  19]+0.108*[#  28]+0.037*[#  38]+
          +0.037*[#  42]+0.037*[#  46]+0.037*[#  50]+0.037*[#  70]+0.037*[#  74]+
          +0.037*[#  78]+0.037*[#  82]+0.015*[#  37]+0.015*[#  41]+0.015*[#  45]+
          +0.015*[#  49]+0.015*[#  69]+0.015*[#  73]+0.015*[#  77]+0.015*[#  81]+
          +0.007*[# 105]+0.007*[# 118]+0.007*[# 131]+0.007*[# 144]+0.003*[# 110]+
          +0.003*[# 123]+0.003*[# 136]+0.003*[# 149]+0.002*[#  53]+0.002*[#  57]+
          +0.002*[#  61]+0.002*[#  65]+0.002*[#  85]+0.002*[#  89]+0.002*[#  93]+
          +0.002*[#  97]+
    |psi|^2 = 0.909
==== e( 115) =    14.33157 eV ==== 
     psi = 0.376*[# 118]+0.078*[# 147]+0.059*[# 109]+0.059*[# 135]+0.042*[# 105]+
          +0.042*[# 131]+0.042*[# 144]+0.028*[#  56]+0.028*[#  88]+0.021*[#  59]+
          +0.021*[#  67]+0.021*[#  91]+0.021*[#  99]+0.020*[# 108]+0.020*[# 134]+
          +0.007*[#  60]+0.007*[#  68]+0.007*[#  92]+0.007*[# 100]+0.007*[# 152]+
          +0.005*[# 112]+0.005*[# 138]+0.004*[#  62]+0.004*[#  94]+0.002*[#  61]+
          +0.002*[#  93]+0.002*[# 123]+0.002*[# 113]+0.002*[# 139]+0.002*[#  19]+
    |psi|^2 = 0.953
==== e( 116) =    14.33183 eV ==== 
     psi = 0.168*[# 105]+0.168*[# 131]+0.168*[# 144]+0.044*[# 121]+0.044*[# 122]+
          +0.044*[# 148]+0.034*[# 108]+0.034*[# 134]+0.016*[#  55]+0.016*[#  63]+
          +0.016*[#  64]+0.016*[#  87]+0.016*[#  95]+0.016*[#  96]+0.015*[# 109]+
          +0.015*[# 135]+0.012*[#  60]+0.012*[#  68]+0.012*[#  92]+0.012*[# 100]+
          +0.005*[#  59]+0.005*[#  67]+0.005*[#  91]+0.005*[#  99]+0.005*[# 147]+
          +0.004*[# 125]+0.004*[# 126]+0.004*[# 151]+0.003*[# 113]+0.003*[# 139]+
          +0.002*[#  54]+0.002*[#  56]+0.002*[#  58]+0.002*[#  66]+0.002*[#  86]+
          +0.002*[#  88]+0.002*[#  90]+0.002*[#  98]+0.001*[# 112]+0.001*[# 138]+
          +0.001*[#  53]+0.001*[#  57]+0.001*[#  65]+0.001*[#  85]+0.001*[#  89]+
          +0.001*[#  97]+0.001*[# 110]+0.001*[# 136]+0.001*[# 149]+
    |psi|^2 = 0.953
==== e( 117) =    14.33184 eV ==== 
     psi = 0.167*[# 105]+0.167*[# 131]+0.167*[# 144]+0.044*[# 121]+0.044*[# 122]+
          +0.044*[# 148]+0.034*[# 108]+0.034*[# 134]+0.016*[#  55]+0.016*[#  63]+
          +0.016*[#  64]+0.016*[#  87]+0.016*[#  95]+0.016*[#  96]+0.015*[# 109]+
          +0.015*[# 135]+0.012*[#  60]+0.012*[#  68]+0.012*[#  92]+0.012*[# 100]+
          +0.005*[#  59]+0.005*[#  67]+0.005*[#  91]+0.005*[#  99]+0.005*[# 147]+
          +0.004*[# 125]+0.004*[# 126]+0.004*[# 151]+0.003*[# 113]+0.003*[# 139]+
          +0.002*[#  54]+0.002*[#  56]+0.002*[#  58]+0.002*[#  66]+0.002*[#  86]+
          +0.002*[#  88]+0.002*[#  90]+0.002*[#  98]+0.001*[# 112]+0.001*[# 138]+
          +0.001*[#  53]+0.001*[#  57]+0.001*[#  65]+0.001*[#  85]+0.001*[#  89]+
          +0.001*[#  97]+0.001*[# 110]+0.001*[# 136]+0.001*[# 149]+
    |psi|^2 = 0.953
==== e( 118) =    14.50914 eV ==== 
     psi = 0.045*[# 106]+0.045*[# 107]+0.045*[# 119]+0.045*[# 120]+0.045*[# 132]+
          +0.045*[# 133]+0.045*[# 145]+0.045*[# 146]+0.037*[#  55]+0.038*[#  56]+
          +0.037*[#  59]+0.037*[#  60]+0.037*[#  63]+0.037*[#  64]+0.037*[#  67]+
          +0.037*[#  68]+0.037*[#  87]+0.037*[#  88]+0.037*[#  91]+0.037*[#  92]+
          +0.037*[#  95]+0.037*[#  96]+0.037*[#  99]+0.037*[# 100]+
    |psi|^2 = 0.960
==== e( 119) =    14.50920 eV ==== 
     psi = 0.045*[# 106]+0.045*[# 107]+0.045*[# 119]+0.045*[# 120]+0.045*[# 132]+
          +0.045*[# 133]+0.045*[# 145]+0.045*[# 146]+0.037*[#  55]+0.037*[#  56]+
          +0.037*[#  59]+0.037*[#  60]+0.037*[#  63]+0.037*[#  64]+0.037*[#  67]+
          +0.037*[#  68]+0.037*[#  87]+0.037*[#  88]+0.037*[#  91]+0.037*[#  92]+
          +0.037*[#  95]+0.037*[#  96]+0.037*[#  99]+0.037*[# 100]+
    |psi|^2 = 0.960
==== e( 120) =    14.96280 eV ==== 
     psi = 0.043*[#  87]+0.043*[#  88]+0.043*[#  91]+0.043*[#  92]+0.043*[#  95]+
          +0.043*[#  96]+0.043*[#  99]+0.043*[# 100]+0.042*[#  55]+0.042*[#  56]+
          +0.042*[#  59]+0.042*[#  60]+0.042*[#  63]+0.042*[#  64]+0.042*[#  67]+
          +0.042*[#  68]+0.036*[# 108]+0.036*[# 109]+0.036*[# 121]+0.036*[# 122]+
          +0.036*[# 134]+0.036*[# 135]+0.036*[# 147]+0.036*[# 148]+0.003*[# 112]+
          +0.003*[# 113]+0.003*[# 125]+0.003*[# 126]+0.003*[# 138]+0.003*[# 139]+
          +0.003*[# 151]+0.003*[# 152]+
    |psi|^2 = 0.986
==== e( 121) =    14.96284 eV ==== 
     psi = 0.043*[#  87]+0.043*[#  88]+0.043*[#  91]+0.043*[#  92]+0.043*[#  95]+
          +0.043*[#  96]+0.043*[#  99]+0.043*[# 100]+0.042*[#  55]+0.042*[#  56]+
          +0.042*[#  59]+0.042*[#  60]+0.042*[#  63]+0.042*[#  64]+0.042*[#  67]+
          +0.042*[#  68]+0.036*[# 108]+0.036*[# 109]+0.036*[# 121]+0.036*[# 122]+
          +0.036*[# 134]+0.036*[# 135]+0.036*[# 147]+0.036*[# 148]+0.003*[# 112]+
          +0.003*[# 113]+0.003*[# 125]+0.003*[# 126]+0.003*[# 138]+0.003*[# 139]+
          +0.003*[# 151]+0.003*[# 152]+
    |psi|^2 = 0.986
==== e( 122) =    15.36027 eV ==== 
     psi = 0.109*[#   2]+0.109*[#  11]+0.109*[#  29]+0.020*[# 119]+0.020*[# 120]+
          +0.020*[# 145]+0.016*[# 107]+0.016*[# 133]+0.013*[#  54]+0.013*[#  58]+
          +0.013*[#  66]+0.013*[#  86]+0.013*[#  90]+0.013*[#  98]+0.011*[#  43]+
          +0.011*[#  44]+0.011*[#  51]+0.011*[#  75]+0.011*[#  76]+0.011*[#  83]+
          +0.009*[#  40]+0.009*[#  48]+0.009*[#  72]+0.009*[#  80]+0.007*[# 106]+
          +0.007*[# 132]+0.005*[#  53]+0.005*[#  57]+0.005*[#  65]+0.005*[#  85]+
          +0.005*[#  89]+0.005*[#  97]+0.005*[#  37]+0.005*[#  45]+0.005*[#  49]+
          +0.005*[#  69]+0.005*[#  77]+0.005*[#  81]+0.004*[# 111]+0.004*[# 137]+
          +0.004*[# 150]+0.004*[#  39]+0.004*[#  47]+0.004*[#  71]+0.004*[#  79]+
          +0.002*[# 146]+0.001*[#  52]+0.001*[#  55]+0.001*[#  63]+0.001*[#  64]+
          +0.001*[#  84]+0.001*[#  87]+0.001*[#  95]+0.001*[#  96]+0.001*[#  60]+
          +0.001*[#  68]+0.001*[#  92]+0.001*[# 100]+
    |psi|^2 = 0.721
==== e( 123) =    15.36029 eV ==== 
     psi = 0.109*[#   2]+0.109*[#  11]+0.109*[#  29]+0.020*[# 119]+0.020*[# 120]+
          +0.020*[# 145]+0.016*[# 107]+0.016*[# 133]+0.013*[#  54]+0.013*[#  58]+
          +0.013*[#  66]+0.013*[#  86]+0.013*[#  90]+0.013*[#  98]+0.011*[#  43]+
          +0.011*[#  44]+0.011*[#  51]+0.011*[#  75]+0.011*[#  76]+0.011*[#  83]+
          +0.009*[#  40]+0.009*[#  48]+0.009*[#  72]+0.009*[#  80]+0.007*[# 106]+
          +0.007*[# 132]+0.005*[#  53]+0.005*[#  57]+0.005*[#  65]+0.005*[#  85]+
          +0.005*[#  89]+0.005*[#  97]+0.005*[#  37]+0.005*[#  45]+0.005*[#  49]+
          +0.005*[#  69]+0.005*[#  77]+0.005*[#  81]+0.004*[# 111]+0.004*[# 137]+
          +0.004*[# 150]+0.004*[#  39]+0.004*[#  47]+0.004*[#  71]+0.004*[#  79]+
          +0.002*[# 146]+0.001*[#  20]+0.001*[#  52]+0.001*[#  55]+0.001*[#  63]+
          +0.001*[#  64]+0.001*[#  84]+0.001*[#  87]+0.001*[#  95]+0.001*[#  96]+
          +0.001*[#  60]+0.001*[#  68]+0.001*[#  92]+0.001*[# 100]+
    |psi|^2 = 0.721
==== e( 124) =    15.36036 eV ==== 
     psi = 0.244*[#  20]+0.036*[# 146]+0.030*[#  62]+0.029*[#  94]+0.028*[#   2]+
          +0.028*[#  11]+0.028*[#  29]+0.027*[# 106]+0.027*[# 132]+0.020*[#  52]+
          +0.020*[#  84]+0.015*[#  39]+0.015*[#  47]+0.015*[#  71]+0.015*[#  79]+
          +0.011*[#  61]+0.011*[#  93]+0.010*[#  41]+0.010*[#  73]+0.010*[# 124]+
          +0.009*[# 107]+0.009*[# 133]+0.005*[#  40]+0.005*[#  48]+0.005*[#  72]+
          +0.005*[#  80]+0.003*[#  54]+0.003*[#  58]+0.003*[#  66]+0.003*[#  86]+
          +0.003*[#  90]+0.003*[#  98]+0.002*[#  56]+0.002*[#  88]+0.002*[#  59]+
          +0.002*[#  67]+0.002*[#  91]+0.002*[#  99]+0.001*[#  37]+0.001*[#  45]+
          +0.001*[#  49]+0.001*[#  53]+0.001*[#  57]+0.001*[#  65]+0.001*[#  69]+
          +0.001*[#  77]+0.001*[#  81]+0.001*[#  85]+0.001*[#  89]+0.001*[#  97]+
          +0.001*[# 111]+0.001*[# 137]+0.001*[# 150]+
    |psi|^2 = 0.721
==== e( 125) =    15.39631 eV ==== 
     psi = 0.050*[#   2]+0.050*[#  11]+0.050*[#  29]+0.051*[# 119]+0.051*[# 120]+
          +0.051*[# 145]+0.039*[# 107]+0.039*[# 133]+0.024*[#  54]+0.024*[#  58]+
          +0.024*[#  66]+0.024*[#  86]+0.024*[#  90]+0.024*[#  98]+0.017*[# 106]+
          +0.017*[# 132]+0.013*[#  53]+0.013*[#  57]+0.013*[#  65]+0.013*[#  85]+
          +0.013*[#  89]+0.013*[#  97]+0.012*[# 111]+0.012*[# 137]+0.012*[# 150]+
          +0.006*[# 146]+0.005*[#  43]+0.005*[#  44]+0.005*[#  51]+0.005*[#  75]+
          +0.005*[#  76]+0.005*[#  83]+0.004*[#  40]+0.004*[#  48]+0.004*[#  72]+
          +0.004*[#  80]+0.003*[#  38]+0.003*[#  46]+0.003*[#  50]+0.003*[#  55]+
          +0.003*[#  63]+0.003*[#  64]+0.003*[#  70]+0.003*[#  78]+0.003*[#  82]+
          +0.003*[#  87]+0.003*[#  95]+0.003*[#  96]+0.002*[#  60]+0.002*[#  68]+
          +0.002*[#  92]+0.002*[# 100]+0.002*[#  39]+0.002*[#  47]+0.002*[#  71]+
          +0.002*[#  79]+0.001*[#  37]+0.001*[#  45]+0.001*[#  49]+0.001*[#  69]+
          +0.001*[#  77]+0.001*[#  81]+
    |psi|^2 = 0.786
==== e( 126) =    15.39633 eV ==== 
     psi = 0.050*[#   2]+0.050*[#  11]+0.050*[#  29]+0.050*[# 119]+0.050*[# 120]+
          +0.050*[# 145]+0.039*[# 107]+0.039*[# 133]+0.024*[#  54]+0.024*[#  58]+
          +0.024*[#  66]+0.024*[#  86]+0.024*[#  90]+0.024*[#  98]+0.017*[# 106]+
          +0.017*[# 132]+0.013*[#  53]+0.013*[#  57]+0.013*[#  65]+0.012*[#  85]+
          +0.012*[#  89]+0.012*[#  97]+0.012*[# 111]+0.012*[# 137]+0.012*[# 150]+
          +0.006*[# 146]+0.005*[#  43]+0.005*[#  44]+0.005*[#  51]+0.005*[#  75]+
          +0.005*[#  76]+0.005*[#  83]+0.004*[#  40]+0.004*[#  48]+0.004*[#  72]+
          +0.004*[#  80]+0.003*[#  38]+0.003*[#  46]+0.003*[#  50]+0.003*[#  55]+
          +0.003*[#  63]+0.003*[#  64]+0.003*[#  70]+0.003*[#  78]+0.003*[#  82]+
          +0.003*[#  87]+0.003*[#  95]+0.003*[#  96]+0.002*[#  60]+0.002*[#  68]+
          +0.002*[#  92]+0.002*[# 100]+0.002*[#  39]+0.002*[#  47]+0.002*[#  71]+
          +0.002*[#  79]+0.001*[#  20]+0.001*[#  37]+0.001*[#  45]+0.001*[#  49]+
          +0.001*[#  69]+0.001*[#  77]+0.001*[#  81]+
    |psi|^2 = 0.786
==== e( 127) =    15.39640 eV ==== 
     psi = 0.112*[#  20]+0.089*[# 146]+0.067*[# 106]+0.067*[# 132]+0.054*[#  62]+
          +0.053*[#  94]+0.028*[#  61]+0.028*[#  93]+0.026*[# 124]+0.023*[# 107]+
          +0.023*[# 133]+0.013*[#   2]+0.013*[#  11]+0.013*[#  29]+0.009*[#  52]+
          +0.009*[#  84]+0.007*[#  39]+0.007*[#  47]+0.007*[#  71]+0.007*[#  79]+
          +0.006*[#  42]+0.006*[#  74]+0.006*[#  54]+0.006*[#  58]+0.006*[#  66]+
          +0.006*[#  86]+0.006*[#  90]+0.006*[#  98]+0.005*[#  56]+0.005*[#  88]+
          +0.004*[#  59]+0.004*[#  67]+0.004*[#  91]+0.004*[#  99]+0.003*[#  53]+
          +0.003*[#  57]+0.003*[#  65]+0.003*[#  85]+0.003*[#  89]+0.003*[#  97]+
          +0.003*[# 111]+0.003*[# 137]+0.003*[# 150]+0.003*[#  41]+0.003*[#  73]+
          +0.002*[#  40]+0.002*[#  48]+0.002*[#  72]+0.002*[#  80]+0.001*[#  60]+
          +0.001*[#  68]+0.001*[#  92]+0.001*[# 100]+
    |psi|^2 = 0.786
==== e( 128) =    15.86907 eV ==== 
     psi = 0.397*[# 123]+0.045*[# 110]+0.045*[# 136]+0.045*[# 149]+0.016*[# 147]+
          +0.013*[#  56]+0.013*[#  88]+0.012*[# 109]+0.012*[# 135]+0.012*[# 118]+
          +0.010*[# 114]+0.009*[#  59]+0.009*[#  67]+0.009*[#  91]+0.009*[#  99]+
          +0.004*[# 108]+0.004*[# 134]+0.003*[#  60]+0.003*[#  68]+0.003*[#  92]+
          +0.003*[# 100]+0.002*[# 152]+0.001*[# 105]+0.001*[# 131]+0.001*[# 144]+
          +0.001*[#   4]+0.001*[# 101]+0.001*[# 112]+0.001*[# 127]+0.001*[# 138]+
          +0.001*[# 140]+
    |psi|^2 = 0.703
==== e( 129) =    15.86931 eV ==== 
     psi = 0.177*[# 110]+0.177*[# 136]+0.177*[# 149]+0.009*[# 121]+0.009*[# 122]+
          +0.009*[# 148]+0.007*[#  55]+0.007*[#  63]+0.007*[#  64]+0.007*[#  87]+
          +0.007*[#  95]+0.007*[#  96]+0.007*[# 108]+0.007*[# 134]+0.006*[#  60]+
          +0.006*[#  68]+0.006*[#  92]+0.006*[# 100]+0.005*[# 105]+0.005*[# 131]+
          +0.005*[# 144]+0.004*[# 101]+0.004*[# 127]+0.004*[# 140]+0.003*[# 109]+
          +0.003*[# 135]+0.002*[#  59]+0.002*[#  67]+0.002*[#  91]+0.002*[#  99]+
          +0.002*[# 123]+0.001*[# 147]+
    |psi|^2 = 0.703
==== e( 130) =    15.86933 eV ==== 
     psi = 0.178*[# 110]+0.178*[# 136]+0.178*[# 149]+0.009*[# 121]+0.009*[# 122]+
          +0.009*[# 148]+0.007*[#  55]+0.007*[#  63]+0.007*[#  64]+0.007*[#  87]+
          +0.007*[#  95]+0.007*[#  96]+0.007*[# 108]+0.007*[# 134]+0.006*[#  60]+
          +0.006*[#  68]+0.006*[#  92]+0.006*[# 100]+0.005*[# 105]+0.005*[# 131]+
          +0.005*[# 144]+0.004*[# 101]+0.004*[# 127]+0.004*[# 140]+0.003*[# 109]+
          +0.003*[# 135]+0.002*[#  59]+0.002*[#  67]+0.002*[#  91]+0.002*[#  99]+
          +0.001*[# 147]+
    |psi|^2 = 0.703
==== e( 131) =    16.39060 eV ==== 
     psi = 0.089*[# 110]+0.089*[# 123]+0.089*[# 136]+0.089*[# 149]+0.025*[#  53]+
          +0.025*[#  57]+0.025*[#  61]+0.025*[#  65]+0.025*[#  85]+0.025*[#  89]+
          +0.025*[#  93]+0.025*[#  97]+0.007*[#  54]+0.007*[#  58]+0.007*[#  62]+
          +0.007*[#  66]+0.007*[#  86]+0.007*[#  90]+0.007*[#  94]+0.007*[#  98]+
          +0.004*[# 105]+0.004*[# 118]+0.004*[# 131]+0.004*[# 144]+
    |psi|^2 = 0.635
==== e( 132) =    16.44891 eV ==== 
     psi = 0.080*[# 119]+0.080*[# 120]+0.080*[# 146]+0.063*[# 106]+0.063*[# 132]+
          +0.048*[#  56]+0.048*[#  63]+0.048*[#  64]+0.048*[#  88]+0.048*[#  95]+
          +0.048*[#  96]+0.038*[#  59]+0.038*[#  67]+0.038*[#  91]+0.038*[#  99]+
          +0.030*[# 107]+0.030*[# 133]+0.018*[#  60]+0.018*[#  68]+0.018*[#  92]+
          +0.018*[# 100]+0.013*[# 145]+0.008*[#  55]+0.008*[#  87]+
    |psi|^2 = 0.968
==== e( 133) =    16.44891 eV ==== 
     psi = 0.082*[# 119]+0.082*[# 120]+0.082*[# 146]+0.064*[# 106]+0.064*[# 132]+
          +0.049*[#  56]+0.049*[#  63]+0.049*[#  64]+0.049*[#  88]+0.050*[#  95]+
          +0.050*[#  96]+0.038*[#  59]+0.038*[#  67]+0.039*[#  91]+0.039*[#  99]+
          +0.028*[# 107]+0.028*[# 133]+0.017*[#  60]+0.017*[#  68]+0.017*[#  92]+
          +0.017*[# 100]+0.009*[# 145]+0.006*[#  55]+0.006*[#  87]+
    |psi|^2 = 0.968
==== e( 134) =    16.44893 eV ==== 
     psi = 0.143*[# 145]+0.108*[# 107]+0.108*[# 133]+0.086*[#  55]+0.086*[#  87]+
          +0.065*[#  60]+0.065*[#  68]+0.065*[#  92]+0.065*[# 100]+0.037*[# 106]+
          +0.037*[# 132]+0.022*[#  59]+0.022*[#  67]+0.022*[#  91]+0.022*[#  99]+
          +0.002*[# 119]+0.002*[# 120]+0.002*[# 146]+0.001*[#  56]+0.001*[#  63]+
          +0.001*[#  64]+0.001*[#  88]+0.001*[#  95]+0.001*[#  96]+
    |psi|^2 = 0.968
==== e( 135) =    16.94394 eV ==== 
     psi = 0.092*[#   3]+0.092*[#   4]+0.092*[#  12]+0.092*[#  13]+0.092*[#  21]+
          +0.092*[#  22]+0.092*[#  30]+0.092*[#  31]+0.006*[#  39]+0.006*[#  40]+
          +0.006*[#  43]+0.006*[#  44]+0.006*[#  47]+0.006*[#  48]+0.006*[#  51]+
          +0.006*[#  52]+0.006*[#  71]+0.006*[#  72]+0.006*[#  75]+0.006*[#  76]+
          +0.006*[#  79]+0.006*[#  80]+0.006*[#  83]+0.006*[#  84]+
    |psi|^2 = 0.837
==== e( 136) =    16.94404 eV ==== 
     psi = 0.092*[#   3]+0.092*[#   4]+0.092*[#  12]+0.092*[#  13]+0.092*[#  21]+
          +0.092*[#  22]+0.092*[#  30]+0.092*[#  31]+0.006*[#  39]+0.006*[#  40]+
          +0.006*[#  43]+0.006*[#  44]+0.006*[#  47]+0.006*[#  48]+0.006*[#  51]+
          +0.006*[#  52]+0.006*[#  71]+0.006*[#  72]+0.006*[#  75]+0.006*[#  76]+
          +0.006*[#  79]+0.006*[#  80]+0.006*[#  83]+0.006*[#  84]+
    |psi|^2 = 0.837
==== e( 137) =    17.26306 eV ==== 
     psi = 0.023*[# 110]+0.022*[# 123]+0.023*[# 136]+0.023*[# 149]+0.004*[#  53]+
          +0.004*[#  57]+0.004*[#  61]+0.004*[#  65]+0.004*[#  85]+0.004*[#  89]+
          +0.004*[#  93]+0.004*[#  97]+0.003*[#  38]+0.003*[#  42]+0.003*[#  46]+
          +0.003*[#  50]+0.004*[#  54]+0.004*[#  58]+0.004*[#  62]+0.004*[#  66]+
          +0.003*[#  70]+0.003*[#  74]+0.003*[#  78]+0.003*[#  82]+0.004*[#  86]+
          +0.004*[#  90]+0.004*[#  94]+0.004*[#  98]+0.003*[# 105]+0.003*[# 118]+
          +0.003*[# 131]+0.003*[# 144]+0.001*[#   1]+0.001*[#  10]+0.001*[#  19]+
          +0.001*[#  28]+
    |psi|^2 = 0.197
==== e( 138) =    17.29793 eV ==== 
     psi = 0.004*[# 111]+0.004*[# 137]+0.004*[# 150]+0.002*[#  43]+0.002*[#  44]+
          +0.002*[#  51]+0.002*[#  75]+0.002*[#  76]+0.002*[#  83]+0.001*[#  40]+
[...]
          +0.005*[#  62]+0.005*[#  94]+0.005*[# 146]+0.005*[#  38]+0.005*[#  46]+
          +0.005*[#  50]+0.005*[#  70]+0.005*[#  78]+0.005*[#  82]+0.004*[# 106]+
          +0.004*[# 119]+0.004*[# 120]+0.004*[# 132]+0.004*[# 124]+0.003*[#   3]+
          +0.003*[#  42]+0.003*[#  74]+0.003*[#  13]+0.003*[#  31]+0.002*[# 107]+
          +0.002*[# 133]+0.002*[#  54]+0.002*[#  58]+0.002*[#  66]+0.002*[#  86]+
          +0.002*[#  90]+0.002*[#  98]+0.002*[#  12]+0.002*[#  30]+0.001*[# 145]+
          +0.001*[#   4]+0.001*[#  19]+0.001*[#  56]+0.001*[#  88]+0.001*[#  59]+
          +0.001*[#  67]+0.001*[#  91]+0.001*[#  99]+
    |psi|^2 = 0.185
==== e( 139) =    18.48069 eV ==== 
     psi = 0.034*[# 110]+0.034*[# 123]+0.034*[# 136]+0.034*[# 149]+0.020*[# 112]+
          +0.020*[# 113]+0.020*[# 125]+0.020*[# 126]+0.020*[# 138]+0.020*[# 139]+
          +0.020*[# 151]+0.020*[# 152]+0.005*[#  55]+0.005*[#  56]+0.005*[#  59]+
          +0.005*[#  60]+0.005*[#  63]+0.005*[#  64]+0.005*[#  67]+0.005*[#  68]+
          +0.005*[#  87]+0.005*[#  88]+0.005*[#  91]+0.005*[#  92]+0.005*[#  95]+
          +0.005*[#  96]+0.005*[#  99]+0.005*[# 100]+0.004*[# 105]+0.004*[# 108]+
          +0.004*[# 109]+0.004*[# 118]+0.004*[# 121]+0.004*[# 122]+0.004*[# 131]+
          +0.004*[# 134]+0.004*[# 135]+0.004*[# 144]+0.004*[# 147]+0.004*[# 148]+
          +0.002*[# 101]+0.002*[# 114]+0.002*[# 127]+0.002*[# 140]+0.001*[#  54]+
          +0.001*[#  58]+0.001*[#  62]+0.001*[#  66]+0.001*[#  86]+0.001*[#  90]+
          +0.001*[#  94]+0.001*[#  98]+
    |psi|^2 = 0.452
==== e( 140) =    18.52938 eV ==== 
     psi = 0.040*[#   3]+0.040*[#   4]+0.040*[#  12]+0.040*[#  13]+0.040*[#  21]+
          +0.040*[#  22]+0.040*[#  30]+0.040*[#  31]+0.024*[#  38]+0.024*[#  42]+
          +0.024*[#  46]+0.024*[#  50]+0.024*[#  70]+0.024*[#  74]+0.024*[#  78]+
          +0.024*[#  82]+0.009*[#  37]+0.009*[#  41]+0.009*[#  45]+0.009*[#  49]+
          +0.009*[#  69]+0.009*[#  73]+0.009*[#  77]+0.009*[#  81]+0.007*[# 106]+
          +0.007*[# 107]+0.007*[# 119]+0.007*[# 120]+0.007*[# 132]+0.007*[# 133]+
          +0.007*[# 145]+0.007*[# 146]+0.004*[#  54]+0.004*[#  58]+0.004*[#  62]+
          +0.004*[#  66]+0.004*[#  86]+0.004*[#  90]+0.004*[#  94]+0.004*[#  98]+
          +0.001*[#  53]+0.001*[#  57]+0.001*[#  61]+0.001*[#  65]+0.001*[#  85]+
          +0.001*[#  89]+0.001*[#  93]+0.001*[#  97]+
    |psi|^2 = 0.696
==== e( 141) =    18.56115 eV ==== 
     psi = 0.075*[# 123]+0.038*[# 110]+0.038*[# 136]+0.038*[# 149]+0.010*[#  20]+
          +0.008*[# 151]+0.008*[# 113]+0.008*[# 139]+0.007*[#   2]+0.007*[#  11]+
          +0.007*[#  29]+0.007*[#  54]+0.007*[#  58]+0.007*[#  66]+0.007*[#  86]+
          +0.007*[#  90]+0.007*[#  98]+0.007*[# 112]+0.007*[# 138]+0.006*[# 152]+
          +0.004*[#  53]+0.004*[#  57]+0.004*[#  65]+0.004*[#  85]+0.004*[#  89]+
          +0.004*[#  97]+0.004*[#  61]+0.004*[#  93]+0.004*[#  56]+0.004*[#  63]+
          +0.004*[#  64]+0.004*[#  88]+0.004*[#  95]+0.004*[#  96]+0.003*[#  59]+
          +0.003*[#  67]+0.003*[#  91]+0.003*[#  99]+0.003*[# 125]+0.003*[# 126]+
          +0.003*[#  60]+0.003*[#  68]+0.003*[#  92]+0.003*[# 100]+0.003*[# 118]+
          +0.002*[#  55]+0.002*[#  87]+0.002*[# 121]+0.002*[# 122]+0.002*[#  52]+
          +0.001*[#  39]+0.001*[#  47]+0.002*[#  84]+0.001*[#  71]+0.001*[#  79]+
          +0.002*[# 101]+0.002*[# 127]+0.002*[# 140]+0.001*[#  40]+0.001*[#  41]+
          +0.001*[#  48]+0.001*[#  72]+0.001*[#  73]+0.001*[#  80]+0.001*[# 114]+
          +0.001*[#  51]+0.001*[#  83]+
    |psi|^2 = 0.439
==== e( 142) =    18.56120 eV ==== 
     psi = 0.057*[# 110]+0.057*[# 136]+0.057*[# 149]+0.019*[# 123]+0.010*[#  62]+
          +0.010*[#  94]+0.009*[# 125]+0.009*[# 126]+0.008*[#   2]+0.008*[#  11]+
          +0.008*[#  29]+0.006*[# 152]+0.006*[#  20]+0.006*[# 112]+0.006*[# 138]+
          +0.005*[#  61]+0.005*[#  93]+0.005*[# 113]+0.005*[# 139]+0.004*[#  53]+
          +0.004*[#  57]+0.004*[#  65]+0.004*[#  85]+0.004*[#  89]+0.004*[#  97]+
          +0.004*[# 151]+0.004*[#  55]+0.004*[#  87]+0.004*[#  54]+0.004*[#  58]+
          +0.004*[#  60]+0.004*[#  66]+0.004*[#  68]+0.004*[#  86]+0.004*[#  90]+
          +0.004*[#  92]+0.004*[#  98]+0.004*[# 100]+0.003*[#  59]+0.003*[#  67]+
          +0.003*[#  91]+0.003*[#  99]+0.003*[#  56]+0.003*[#  63]+0.003*[#  64]+
          +0.003*[#  88]+0.003*[#  95]+0.003*[#  96]+0.002*[#  43]+0.002*[#  44]+
          +0.002*[#  75]+0.002*[#  76]+0.002*[# 105]+0.002*[# 131]+0.002*[# 144]+
          +0.002*[# 108]+0.002*[# 109]+0.002*[# 114]+0.002*[# 134]+0.002*[# 135]+
          +0.002*[# 147]+0.002*[# 148]+0.001*[# 101]+0.001*[# 127]+0.001*[# 140]+
          +0.001*[#  51]+0.001*[#  83]+
    |psi|^2 = 0.439
==== e( 143) =    18.65159 eV ==== 
     psi = 0.058*[#   2]+0.058*[#  11]+0.058*[#  20]+0.058*[#  29]+0.009*[#  37]+
          +0.009*[#  41]+0.009*[#  45]+0.009*[#  49]+0.009*[#  69]+0.009*[#  73]+
          +0.009*[#  77]+0.009*[#  81]+0.008*[#  39]+0.008*[#  40]+0.008*[#  43]+
          +0.008*[#  44]+0.008*[#  47]+0.008*[#  48]+0.008*[#  51]+0.008*[#  52]+
          +0.008*[#  71]+0.008*[#  72]+0.008*[#  75]+0.008*[#  76]+0.008*[#  79]+
          +0.008*[#  80]+0.008*[#  83]+0.008*[#  84]+0.003*[#  38]+0.003*[#  42]+
          +0.003*[#  46]+0.003*[#  50]+0.003*[#  70]+0.003*[#  74]+0.003*[#  78]+
          +0.003*[#  82]+
    |psi|^2 = 0.464
==== e( 144) =    18.98799 eV ==== 
     psi = 0.036*[# 110]+0.036*[# 123]+0.036*[# 136]+0.036*[# 149]+0.022*[#  53]+
          +0.022*[#  57]+0.022*[#  61]+0.022*[#  65]+0.022*[#  85]+0.022*[#  89]+
          +0.022*[#  93]+0.022*[#  97]+0.022*[# 112]+0.022*[# 113]+0.022*[# 125]+
          +0.022*[# 126]+0.022*[# 138]+0.022*[# 139]+0.022*[# 151]+0.022*[# 152]+
          +0.011*[# 105]+0.011*[# 118]+0.011*[# 131]+0.011*[# 144]+0.009*[#  54]+
          +0.009*[#  58]+0.009*[#  62]+0.009*[#  66]+0.009*[#  86]+0.009*[#  90]+
          +0.009*[#  94]+0.009*[#  98]+0.006*[#  55]+0.006*[#  56]+0.006*[#  59]+
          +0.006*[#  60]+0.006*[#  63]+0.006*[#  64]+0.006*[#  67]+0.006*[#  68]+
          +0.006*[#  87]+0.006*[#  88]+0.006*[#  91]+0.006*[#  92]+0.006*[#  95]+
          +0.006*[#  96]+0.006*[#  99]+0.006*[# 100]+0.001*[#   2]+0.001*[#  11]+
          +0.001*[#  20]+0.001*[#  29]+
    |psi|^2 = 0.719
==== e( 145) =    19.17024 eV ==== 
     psi = 0.076*[# 123]+0.044*[# 110]+0.044*[# 136]+0.044*[# 149]+0.035*[# 152]+
          +0.034*[# 112]+0.034*[# 138]+0.033*[# 113]+0.033*[# 139]+0.032*[# 151]+
          +0.023*[# 125]+0.023*[# 126]+0.007*[# 105]+0.007*[# 114]+0.007*[# 131]+
          +0.007*[# 144]+0.005*[# 118]+0.005*[# 101]+0.005*[# 127]+0.005*[# 140]+
          +0.004*[# 148]+0.004*[#  61]+0.004*[#  93]+0.004*[# 108]+0.004*[# 134]+
          +0.004*[# 121]+0.004*[# 122]+0.003*[# 109]+0.003*[# 135]+0.003*[# 147]+
          +0.002*[#  56]+0.002*[#  59]+0.002*[#  63]+0.002*[#  64]+0.002*[#  67]+
          +0.002*[#  88]+0.002*[#  91]+0.002*[#  95]+0.002*[#  96]+0.002*[#  53]+
          +0.002*[#  97]+0.002*[#  99]+0.002*[#  54]+0.002*[#  55]+0.002*[#  57]+
          +0.002*[#  58]+0.002*[#  60]+0.002*[#  65]+0.002*[#  66]+0.002*[#  68]+
          +0.002*[#  85]+0.002*[#  86]+0.002*[#  87]+0.002*[#  89]+0.002*[#  90]+
          +0.002*[#  92]+0.002*[#  98]+0.002*[# 100]+0.002*[#   2]+0.002*[#  11]+
          +0.002*[#  29]+0.001*[#  62]+0.001*[#  94]+
    |psi|^2 = 0.627
==== e( 146) =    19.17029 eV ==== 
     psi = 0.060*[# 110]+0.060*[# 136]+0.060*[# 149]+0.039*[# 125]+0.039*[# 126]+
          +0.029*[# 151]+0.029*[# 113]+0.029*[# 139]+0.028*[# 123]+0.027*[# 112]+
          +0.027*[# 138]+0.027*[# 152]+0.008*[# 118]+0.006*[# 105]+0.006*[# 131]+
          +0.006*[# 144]+0.006*[# 101]+0.006*[# 127]+0.006*[# 140]+0.004*[# 147]+
          +0.004*[# 109]+0.004*[# 135]+0.003*[# 121]+0.003*[# 122]+0.003*[#  53]+
          +0.003*[#  57]+0.003*[#  65]+0.003*[#  85]+0.003*[#  89]+0.003*[#  97]+
          +0.003*[# 114]+0.003*[# 108]+0.003*[# 134]+0.003*[#  62]+0.003*[#  94]+
          +0.003*[#  20]+0.003*[# 148]+0.003*[#  55]+0.002*[#  60]+0.003*[#  87]+
          +0.002*[#  56]+0.002*[#  59]+0.002*[#  64]+0.002*[#  67]+0.002*[#  68]+
          +0.002*[#  91]+0.002*[#  92]+0.002*[#  99]+0.002*[# 100]+0.002*[#  63]+
          +0.002*[#  88]+0.002*[#  95]+0.002*[#  96]+0.002*[#  54]+0.002*[#  58]+
          +0.002*[#  66]+0.002*[#  86]+0.002*[#  90]+0.002*[#  98]+0.002*[#   2]+
          +0.002*[#  11]+0.002*[#  29]+0.001*[#  61]+0.001*[#  93]+
    |psi|^2 = 0.627
==== e( 147) =    19.67131 eV ==== 
     psi = 0.004*[#   1]+0.004*[#  10]+0.004*[#  19]+0.004*[#  28]+0.002*[# 111]+
          +0.002*[# 124]+0.002*[# 137]+0.002*[# 150]+0.001*[#   3]+0.001*[#   4]+
          +0.001*[#  12]+0.001*[#  13]+0.001*[#  21]+0.001*[#  22]+0.001*[#  30]+
          +0.001*[#  31]+
    |psi|^2 = 0.054
==== e( 148) =    19.99698 eV ==== 
     psi = 0.007*[#   3]+0.007*[#   4]+0.007*[#  12]+0.007*[#  13]+0.007*[#  21]+
          +0.007*[#  22]+0.007*[#  30]+0.007*[#  31]+0.002*[#  39]+0.002*[#  40]+
          +0.002*[#  43]+0.002*[#  44]+0.002*[#  47]+0.002*[#  48]+0.002*[#  51]+
          +0.002*[#  52]+0.002*[#  71]+0.002*[#  72]+0.002*[#  75]+0.002*[#  76]+
          +0.002*[#  79]+0.002*[#  80]+0.002*[#  83]+0.002*[#  84]+
    |psi|^2 = 0.089
==== e( 149) =    20.12270 eV ==== 
     psi = 0.016*[# 111]+0.016*[# 137]+0.016*[# 150]+0.005*[#  21]+0.005*[#  22]+
          +0.003*[# 119]+0.003*[# 120]+0.002*[#   3]+0.002*[#   4]+0.002*[#  12]+
          +0.002*[#  13]+0.002*[#  30]+0.002*[# 124]+0.002*[#   1]+0.002*[#  10]+
          +0.002*[#  28]+0.002*[#  31]+0.002*[#  42]+0.002*[#  56]+0.002*[#  63]+
          +0.002*[#  64]+0.002*[#  74]+0.002*[#  88]+0.002*[#  95]+0.002*[#  96]+
          +0.002*[# 146]+0.002*[#  38]+0.002*[#  46]+0.002*[#  50]+0.002*[#  59]+
          +0.002*[#  67]+0.002*[#  70]+0.002*[#  78]+0.002*[#  82]+0.002*[#  91]+
          +0.002*[#  99]+0.002*[#  60]+0.002*[#  68]+0.002*[#  92]+0.002*[# 100]+
          +0.002*[# 106]+0.002*[# 132]+0.001*[#  55]+0.001*[#  87]+
    |psi|^2 = 0.153
==== e( 150) =    20.12274 eV ==== 
     psi = 0.022*[# 124]+0.009*[# 111]+0.009*[# 137]+0.009*[# 150]+0.004*[#   3]+
          +0.003*[#   4]+0.003*[#  12]+0.004*[#  13]+0.003*[#  30]+0.004*[#  31]+
          +0.003*[#  19]+0.003*[# 145]+0.002*[# 107]+0.002*[# 133]+0.002*[#  55]+
          +0.002*[#  87]+0.002*[#  60]+0.002*[#  68]+0.002*[#  92]+0.002*[# 100]+
          +0.002*[#  38]+0.002*[#  46]+0.002*[#  50]+0.002*[#  70]+0.002*[#  78]+
          +0.002*[#  82]+0.002*[#  42]+0.002*[#  59]+0.002*[#  67]+0.002*[#  74]+
          +0.002*[#  91]+0.002*[#  99]+0.002*[#  56]+0.002*[#  63]+0.002*[#  64]+
          +0.001*[#  88]+0.002*[#  95]+0.002*[#  96]+0.002*[# 106]+0.002*[# 132]+
          +0.001*[#   1]+0.001*[#  10]+0.001*[#  28]+0.001*[# 146]+
    |psi|^2 = 0.153
==== e( 151) =    20.26522 eV ==== 
     psi = 0.015*[# 123]+0.015*[# 110]+0.015*[# 136]+0.015*[# 149]+0.007*[# 112]+
          +0.007*[# 113]+0.007*[# 138]+0.007*[# 139]+0.007*[# 151]+0.007*[# 152]+
          +0.007*[# 125]+0.007*[# 126]+0.006*[#  53]+0.006*[#  57]+0.006*[#  65]+
          +0.006*[#  85]+0.006*[#  89]+0.006*[#  97]+0.006*[#  61]+0.006*[#  93]+
          +0.004*[# 108]+0.004*[# 109]+0.004*[# 121]+0.004*[# 122]+0.004*[# 134]+
          +0.004*[# 135]+0.004*[# 147]+0.004*[# 148]+0.003*[#  54]+0.003*[#  58]+
          +0.003*[#  66]+0.003*[#  86]+0.003*[#  90]+0.003*[#  98]+0.003*[#  62]+
          +0.003*[#  94]+0.001*[#  20]+0.001*[#   2]+0.001*[#  11]+0.001*[#  29]+
    |psi|^2 = 0.252
==== e( 152) =    20.26763 eV ==== 
     psi = 0.029*[# 151]+0.024*[# 113]+0.024*[# 139]+0.014*[# 112]+0.014*[# 138]+
          +0.010*[#  53]+0.010*[#  57]+0.010*[#  65]+0.010*[#  85]+0.010*[#  89]+
          +0.010*[#  97]+0.010*[#   2]+0.010*[#  11]+0.010*[#  29]+0.009*[# 125]+
          +0.009*[# 126]+0.008*[# 152]+0.006*[#  54]+0.006*[#  58]+0.006*[#  66]+
          +0.006*[#  86]+0.006*[#  90]+0.006*[#  98]+0.006*[# 110]+0.006*[# 123]+
          +0.006*[# 136]+0.006*[# 149]+0.003*[#  61]+0.003*[#  93]+0.003*[# 118]+
          +0.003*[#  63]+0.003*[#  64]+0.003*[#  95]+0.003*[#  96]+0.003*[# 121]+
          +0.003*[# 122]+0.003*[# 148]+0.003*[# 108]+0.003*[# 134]+0.002*[#  56]+
          +0.002*[#  88]+0.002*[#  51]+0.002*[#  83]+0.002*[# 109]+0.002*[# 135]+
          +0.002*[#  59]+0.002*[#  67]+0.002*[#  91]+0.002*[#  99]+0.002*[# 147]+
          +0.002*[#  40]+0.002*[#  48]+0.002*[#  72]+0.002*[#  80]+0.002*[#  43]+
          +0.002*[#  44]+0.002*[#  75]+0.002*[#  76]+0.002*[# 105]+0.002*[# 131]+
          +0.002*[# 144]+
    |psi|^2 = 0.379

Lowdin Charges: 

     Atom #   1: total charge =  13.3909, s =  1.1070, 
     Atom #   1: total charge =  13.3909, p =  2.2932, pz=  0.7564, px=  0.7684, py=  0.7684, 
     Atom #   1: total charge =  13.3909, d =  9.9907, dz2=  1.9981, dxz=  1.9988, dyz=  1.9988, dx2-y2=  1.9975, dxy=  1.9975, 
     Atom #   2: total charge =  13.3909, s =  1.1070, 
     Atom #   2: total charge =  13.3909, p =  2.2932, pz=  0.7564, px=  0.7684, py=  0.7684, 
     Atom #   2: total charge =  13.3909, d =  9.9907, dz2=  1.9981, dxz=  1.9988, dyz=  1.9988, dx2-y2=  1.9975, dxy=  1.9975, 
     Atom #   3: total charge =  13.3909, s =  1.1069, 
     Atom #   3: total charge =  13.3909, p =  2.2932, pz=  0.7564, px=  0.7684, py=  0.7684, 
     Atom #   3: total charge =  13.3909, d =  9.9907, dz2=  1.9981, dxz=  1.9988, dyz=  1.9988, dx2-y2=  1.9975, dxy=  1.9975, 
     Atom #   4: total charge =  13.3909, s =  1.1070, 
     Atom #   4: total charge =  13.3909, p =  2.2932, pz=  0.7564, px=  0.7684, py=  0.7684, 
     Atom #   4: total charge =  13.3909, d =  9.9907, dz2=  1.9981, dxz=  1.9988, dyz=  1.9988, dx2-y2=  1.9975, dxy=  1.9975, 
     Atom #   5: total charge =   6.1958, s =  1.7586, 
     Atom #   5: total charge =   6.1958, p =  4.4372, pz=  1.5840, px=  1.4266, py=  1.4266, 
     Atom #   5: total charge =   6.1958, d =  0.0000, dz2=  0.0000, dxz=  0.0000, dyz=  0.0000, dx2-y2=  0.0000, dxy=  0.0000, 
     Atom #   6: total charge =   6.1959, s =  1.7586, 
     Atom #   6: total charge =   6.1959, p =  4.4373, pz=  1.5841, px=  1.4266, py=  1.4266, 
     Atom #   6: total charge =   6.1959, d =  0.0000, dz2=  0.0000, dxz=  0.0000, dyz=  0.0000, dx2-y2=  0.0000, dxy=  0.0000, 
     Atom #   7: total charge =   6.1958, s =  1.7586, 
     Atom #   7: total charge =   6.1958, p =  4.4372, pz=  1.5840, px=  1.4266, py=  1.4266, 
     Atom #   7: total charge =   6.1958, d =  0.0000, dz2=  0.0000, dxz=  0.0000, dyz=  0.0000, dx2-y2=  0.0000, dxy=  0.0000, 
     Atom #   8: total charge =   6.1958, s =  1.7586, 
     Atom #   8: total charge =   6.1958, p =  4.4372, pz=  1.5840, px=  1.4266, py=  1.4266, 
     Atom #   8: total charge =   6.1958, d =  0.0000, dz2=  0.0000, dxz=  0.0000, dyz=  0.0000, dx2-y2=  0.0000, dxy=  0.0000, 
     Atom #   9: total charge =   5.5929, s =  1.5532, 
     Atom #   9: total charge =   5.5929, p =  4.0398, pz=  1.4955, px=  1.2721, py=  1.2721, 
     Atom #   9: total charge =   5.5929, d =  0.0000, dz2=  0.0000, dxz=  0.0000, dyz=  0.0000, dx2-y2=  0.0000, dxy=  0.0000, 
     Atom #  10: total charge =   5.5929, s =  1.5532, 
     Atom #  10: total charge =   5.5929, p =  4.0398, pz=  1.4955, px=  1.2721, py=  1.2721, 
     Atom #  10: total charge =   5.5929, d =  0.0000, dz2=  0.0000, dxz=  0.0000, dyz=  0.0000, dx2-y2=  0.0000, dxy=  0.0000, 
     Atom #  11: total charge =   5.5928, s =  1.5532, 
     Atom #  11: total charge =   5.5928, p =  4.0396, pz=  1.4954, px=  1.2721, py=  1.2721, 
     Atom #  11: total charge =   5.5928, d =  0.0000, dz2=  0.0000, dxz=  0.0000, dyz=  0.0000, dx2-y2=  0.0000, dxy=  0.0000, 
     Atom #  12: total charge =   5.5929, s =  1.5532, 
     Atom #  12: total charge =   5.5929, p =  4.0398, pz=  1.4955, px=  1.2721, py=  1.2721, 
     Atom #  12: total charge =   5.5929, d =  0.0000, dz2=  0.0000, dxz=  0.0000, dyz=  0.0000, dx2-y2=  0.0000, dxy=  0.0000, 
     Atom #  13: total charge =   6.1952, s =  1.7586, 
     Atom #  13: total charge =   6.1952, p =  4.4366, pz=  1.5839, px=  1.4263, py=  1.4264, 
     Atom #  13: total charge =   6.1952, d =  0.0000, dz2=  0.0000, dxz=  0.0000, dyz=  0.0000, dx2-y2=  0.0000, dxy=  0.0000, 
     Atom #  14: total charge =   6.1952, s =  1.7586, 
     Atom #  14: total charge =   6.1952, p =  4.4366, pz=  1.5839, px=  1.4264, py=  1.4264, 
     Atom #  14: total charge =   6.1952, d =  0.0000, dz2=  0.0000, dxz=  0.0000, dyz=  0.0000, dx2-y2=  0.0000, dxy=  0.0000, 
     Atom #  15: total charge =   6.1952, s =  1.7586, 
     Atom #  15: total charge =   6.1952, p =  4.4366, pz=  1.5839, px=  1.4263, py=  1.4264, 
     Atom #  15: total charge =   6.1952, d =  0.0000, dz2=  0.0000, dxz=  0.0000, dyz=  0.0000, dx2-y2=  0.0000, dxy=  0.0000, 
     Atom #  16: total charge =   6.1952, s =  1.7586, 
     Atom #  16: total charge =   6.1952, p =  4.4366, pz=  1.5839, px=  1.4264, py=  1.4263, 
     Atom #  16: total charge =   6.1952, d =  0.0000, dz2=  0.0000, dxz=  0.0000, dyz=  0.0000, dx2-y2=  0.0000, dxy=  0.0000, 
     Atom #  17: total charge =   5.5917, s =  1.5532, 
     Atom #  17: total charge =   5.5917, p =  4.0385, pz=  1.4952, px=  1.2717, py=  1.2717, 
     Atom #  17: total charge =   5.5917, d =  0.0000, dz2=  0.0000, dxz=  0.0000, dyz=  0.0000, dx2-y2=  0.0000, dxy=  0.0000, 
     Atom #  18: total charge =   5.5917, s =  1.5532, 
     Atom #  18: total charge =   5.5917, p =  4.0385, pz=  1.4952, px=  1.2717, py=  1.2717, 
     Atom #  18: total charge =   5.5917, d =  0.0000, dz2=  0.0000, dxz=  0.0000, dyz=  0.0000, dx2-y2=  0.0000, dxy=  0.0000, 
     Atom #  19: total charge =   5.5915, s =  1.5532, 
     Atom #  19: total charge =   5.5915, p =  4.0384, pz=  1.4951, px=  1.2716, py=  1.2716, 
     Atom #  19: total charge =   5.5915, d =  0.0000, dz2=  0.0000, dxz=  0.0000, dyz=  0.0000, dx2-y2=  0.0000, dxy=  0.0000, 
     Atom #  20: total charge =   5.5917, s =  1.5532, 
     Atom #  20: total charge =   5.5917, p =  4.0385, pz=  1.4952, px=  1.2717, py=  1.2717, 
     Atom #  20: total charge =   5.5917, d =  0.0000, dz2=  0.0000, dxz=  0.0000, dyz=  0.0000, dx2-y2=  0.0000, dxy=  0.0000, 
     Atom #  21: total charge =  14.7066, s =  2.4224, 
     Atom #  21: total charge =  14.7066, p =  7.1906, pz=  2.4132, px=  2.3887, py=  2.3887, 
     Atom #  21: total charge =  14.7066, d =  5.0936, dz2=  1.1081, dxz=  0.9711, dyz=  0.9710, dx2-y2=  1.0217, dxy=  1.0217, 
     Atom #  22: total charge =  14.7070, s =  2.4224, 
     Atom #  22: total charge =  14.7070, p =  7.1906, pz=  2.4132, px=  2.3887, py=  2.3887, 
     Atom #  22: total charge =  14.7070, d =  5.0940, dz2=  1.1083, dxz=  0.9711, dyz=  0.9711, dx2-y2=  1.0218, dxy=  1.0218, 
     Atom #  23: total charge =  14.7066, s =  2.4224, 
     Atom #  23: total charge =  14.7066, p =  7.1906, pz=  2.4132, px=  2.3887, py=  2.3887, 
     Atom #  23: total charge =  14.7066, d =  5.0936, dz2=  1.1081, dxz=  0.9711, dyz=  0.9710, dx2-y2=  1.0217, dxy=  1.0217, 
     Atom #  24: total charge =  14.7066, s =  2.4224, 
     Atom #  24: total charge =  14.7066, p =  7.1906, pz=  2.4132, px=  2.3887, py=  2.3887, 
     Atom #  24: total charge =  14.7066, d =  5.0936, dz2=  1.1081, dxz=  0.9710, dyz=  0.9711, dx2-y2=  1.0217, dxy=  1.0217, 
     Spilling Parameter:   0.0063

     PROJWFC      :    17.16s CPU        12.71s WALL


   This run was terminated on:  13:29:16   7May2021            

=------------------------------------------------------------------------------=
   JOB DONE.
=------------------------------------------------------------------------------=
