
     Program PWSCF v.6.1 starts on  7May2021 at 13:26:33 

     This program is part of the open-source Quantum ESPRESSO suite
     for quantum simulation of materials; please cite
         "P. Giannozzi et al., J. Phys.:Condens. Matter 21 395502 (2009);
          URL http://www.quantum-espresso.org", 
     in publications or presentations arising from this work. More details at
     http://www.quantum-espresso.org/quote

     Parallel version (MPI & OpenMP), running on      12 processor cores
     Number of MPI processes:                 4
     Threads/MPI process:                     3
     R & G space division:  proc/nbgrp/npool/nimage =       4
     Reading input from espresso.in
Warning: card &DOS ignored
Warning: card     DEGAUSS =  1.00000E-02 ignored
Warning: card     DELTAE  =  1.00000E-02 ignored
Warning: card     EMAX    =  5.00000E+01 ignored
Warning: card     EMIN    = -5.00000E+01 ignored
Warning: card     FILDOS  = "ESPRESSO.DOS" ignored
Warning: card     NGAUSS  = 0 ignored
Warning: card     OUTDIR  = "./" ignored
Warning: card     PREFIX  = "ESPRESSO" ignored
Warning: card / ignored
Warning: card &PROJWFC ignored
Warning: card     DEGAUSS =  1.00000E-02 ignored
Warning: card     DELTAE  =  1.00000E-02 ignored
Warning: card     EMAX    =  5.00000E+01 ignored
Warning: card     EMIN    = -5.00000E+01 ignored
Warning: card     FILPDOS = "ESPRESSO" ignored
Warning: card     NGAUSS  = 0 ignored
Warning: card     OUTDIR  = "./" ignored
Warning: card     PREFIX  = "ESPRESSO" ignored
Warning: card / ignored

     Current dimensions of program PWSCF are:
     Max number of different atomic species (ntypx) = 10
     Max number of k-points (npk) =  40000
     Max angular momentum in pseudopotentials (lmaxx) =  3
     Message from routine iosys:
     wrong startingpot: use default (2)

     Atomic positions and unit cell read from directory:
     ./espresso.save/

               file Sn.pbe-dn-rrkjus_psl.1.0.0.UPF: wavefunction(s)  5S 4D renormalized

     Subspace diagonalization in iterative solution of the eigenvalue problem:
     a serial algorithm will be used

     Found symmetry operation: I + ( -0.0000  0.5000  0.0000)
     This is a supercell, fractional translations are disabled

     Parallelization info
     --------------------
     sticks:   dense  smooth     PW     G-vecs:    dense   smooth      PW
     Min        1066     472    127               117375    34788    4987
     Max        1068     473    128               117376    34799    4996
     Sum        4267    1891    511               469503   139185   19971



     bravais-lattice index     =            4
     lattice parameter (alat)  =      12.0649  a.u.
     unit-cell volume          =    3186.9792 (a.u.)^3
     number of atoms/cell      =           24
     number of atomic types    =            3
     number of electrons       =       208.00
     number of Kohn-Sham states=          152
     kinetic-energy cutoff     =      47.0743  Ry
     charge density cutoff     =     423.6680  Ry
     Exchange-correlation      =  SLA  PW   PBE  PBE ( 1  4  3  4 0 0)

     celldm(1)=  12.064919  celldm(2)=   0.000000  celldm(3)=   2.095441
     celldm(4)=   0.000000  celldm(5)=   0.000000  celldm(6)=   0.000000

     crystal axes: (cart. coord. in units of alat)
               a(1) = (   1.000000   0.000000   0.000000 )  
               a(2) = (  -0.500000   0.866025   0.000000 )  
               a(3) = (   0.000000   0.000000   2.095441 )  

     reciprocal axes: (cart. coord. in units 2 pi/alat)
               b(1) = (  1.000000  0.577350 -0.000000 )  
               b(2) = (  0.000000  1.154701  0.000000 )  
               b(3) = (  0.000000 -0.000000  0.477227 )  


     PseudoPot. # 1 for Sn read from file:
     C:\Users\ROG\.burai\.pseudopot/Sn.pbe-dn-rrkjus_psl.1.0.0.UPF
     MD5 check sum: 6923576d35b7bb477f9d834f190d2db6
     Pseudo is Ultrasoft + core correction, Zval = 14.0
     Generated using "atomic" code by A. Dal Corso  v.5.1.2
     Using radial grid of 1243 points,  6 beta functions with: 
                l(1) =   0
                l(2) =   0
                l(3) =   1
                l(4) =   1
                l(5) =   2
                l(6) =   2
     Q(r) pseudized with 0 coefficients 


     PseudoPot. # 2 for Se read from file:
     C:\Users\ROG\.burai\.pseudopot/Se.pbe-n-rrkjus_psl.1.0.0.UPF
     MD5 check sum: b4fde84b927950421ac83de11f467c93
     Pseudo is Ultrasoft + core correction, Zval =  6.0
     Generated using "atomic" code by A. Dal Corso  v.5.1.2
     Using radial grid of 1211 points,  4 beta functions with: 
                l(1) =   0
                l(2) =   0
                l(3) =   1
                l(4) =   1
     Q(r) pseudized with 0 coefficients 


     PseudoPot. # 3 for W  read from file:
     C:\Users\ROG\.burai\.pseudopot/W.pbe-nsp-van.UPF
     MD5 check sum: d6466f82beb0ca8b88800d998c44bca0
     Pseudo is Ultrasoft + core correction, Zval = 14.0
     Generated by new atomic code, or converted to UPF format
     Using radial grid of  923 points,  6 beta functions with: 
                l(1) =   0
                l(2) =   0
                l(3) =   1
                l(4) =   1
                l(5) =   2
                l(6) =   2
     Q(r) pseudized with  6 coefficients,  rinner =    1.000   1.000   1.000
                                                       1.000   1.000

     atomic species   valence    mass     pseudopotential
        Sn            14.00   118.71000     Sn( 1.00)
        Se             6.00    78.96000     Se( 1.00)
        W             14.00   183.84000     W ( 1.00)

      6 Sym. Ops. (no inversion) found



   Cartesian axes

     site n.     atom                  positions (alat units)
         1           Sn  tau(   1) = (  -0.0000005   0.2886747   1.5715800  )
         2           Sn  tau(   2) = (  -0.2500003   0.7216871   1.5715800  )
         3           Sn  tau(   3) = (   0.4999992   0.2886747   1.5715800  )
         4           Sn  tau(   4) = (   0.2499994   0.7216871   1.5715800  )
         5           Se  tau(   5) = (   0.2499998   0.1443369   1.3265853  )
         6           Se  tau(   6) = (   0.0000000   0.5773493   1.3265853  )
         7           Se  tau(   7) = (   0.7499995   0.1443369   1.3265853  )
         8           Se  tau(   8) = (   0.4999997   0.5773493   1.3265853  )
         9           Se  tau(   9) = (  -0.0000005   0.2886747   0.7688546  )
        10           Se  tau(  10) = (  -0.2500003   0.7216871   0.7688546  )
        11           Se  tau(  11) = (   0.4999992   0.2886747   0.7688546  )
        12           Se  tau(  12) = (   0.2499994   0.7216871   0.7688546  )
        13           Se  tau(  13) = (   0.2499998   0.1443369   1.8165746  )
        14           Se  tau(  14) = (   0.0000000   0.5773493   1.8165746  )
        15           Se  tau(  15) = (   0.7499995   0.1443369   1.8165746  )
        16           Se  tau(  16) = (   0.4999997   0.5773493   1.8165746  )
        17           Se  tau(  17) = (  -0.0000005   0.2886747   0.2788653  )
        18           Se  tau(  18) = (  -0.2500003   0.7216871   0.2788653  )
        19           Se  tau(  19) = (   0.4999992   0.2886747   0.2788653  )
        20           Se  tau(  20) = (   0.2499994   0.7216871   0.2788653  )
        21           W   tau(  21) = (   0.2499998   0.1443369   0.5238600  )
        22           W   tau(  22) = (   0.0000000   0.5773493   0.5238600  )
        23           W   tau(  23) = (   0.7499995   0.1443369   0.5238600  )
        24           W   tau(  24) = (   0.4999997   0.5773493   0.5238600  )

     number of k points=     8  gaussian smearing, width (Ry)=  0.0100
                       cart. coord. in units 2pi/alat
        k(    1) = (   0.0000000   0.0000000   0.0000000), wk =   0.0625000
        k(    2) = (   0.0000000   0.0000000  -0.2386133), wk =   0.0625000
        k(    3) = (   0.0000000   0.2886751   0.0000000), wk =   0.3750000
        k(    4) = (   0.0000000   0.2886751  -0.2386133), wk =   0.3750000
        k(    5) = (   0.0000000  -0.5773503   0.0000000), wk =   0.1875000
        k(    6) = (   0.0000000  -0.5773503  -0.2386133), wk =   0.1875000
        k(    7) = (   0.2500000   0.4330127   0.0000000), wk =   0.3750000
        k(    8) = (   0.2500000   0.4330127  -0.2386133), wk =   0.3750000

     Dense  grid:   469503 G-vectors     FFT dimensions: (  80,  80, 180)

     Smooth grid:   139185 G-vectors     FFT dimensions: (  54,  54, 120)

     Estimated max dynamical RAM per process >     157.74MB

     Estimated total allocated dynamical RAM >     630.96MB

     The potential is recalculated from file :
     ./espresso.save/charge-density.dat

     Starting wfc are  152 randomized atomic wfcs

     Band Structure Calculation
     Davidson diagonalization with overlap

     ethr =  4.81E-10,  avg # of iterations = 19.5

     total cpu time spent up to now is      144.6 secs

     End of band structure calculation

          k = 0.0000 0.0000 0.0000 ( 17401 PWs)   bands (ev):

   -62.5982 -62.5813 -62.5807 -62.5807 -27.1648 -27.1648 -27.1645 -27.0023
   -26.9289 -26.9284 -26.9283 -26.8943 -26.8943 -26.8940 -26.8125 -26.8125
   -11.4911 -11.4910 -11.4910 -11.4541 -11.4540 -11.4540 -11.3268 -11.3268
   -11.2458 -11.1910 -11.1909 -11.1908 -11.1361 -11.1360 -11.0486 -11.0486
   -11.0484 -11.0391 -11.0390 -11.0390  -6.5423  -4.5192  -4.0713  -3.3056
    -3.3055  -3.3054  -2.7079  -2.1009  -2.1008  -2.1002  -1.8157  -1.8157
    -1.8151  -1.2758  -1.2757  -1.2756   1.1174   1.1175   1.1176   3.0650
     4.0670   4.0673   4.0673   4.3644   4.3644   4.3645   4.3716   5.5195
     5.5197   5.5198   5.7575   5.7576   5.7576   6.4508   6.4508   6.4511
     7.2864   7.6107   7.6107   7.6108   8.0271   8.0271   8.0272   8.1889
     8.1889   8.9850   8.9851   8.9854   9.4461   9.6150   9.6151   9.9752
     9.9752   9.9753  10.1225  10.1226  10.1227  10.1606  10.1608  10.1608
    10.5618  10.5618  10.5618  10.8567  10.9634  10.9635  11.2662  11.2662
    11.2663  12.0132  12.0133  13.3547  13.3547  13.3548  13.8606  13.8606
    13.8608  13.8957  14.3316  14.3318  14.3318  14.5091  14.5092  14.9628
    14.9628  15.3603  15.3603  15.3604  15.3963  15.3963  15.3964  15.8691
    15.8693  15.8693  16.3906  16.4489  16.4489  16.4489  16.9439  16.9440
    17.2631  17.2979  17.2980  17.2980  17.6802  17.6802  17.6802  17.8515
    18.5491  18.5492  18.5492  18.7218  18.7220  18.7220  19.4681  19.4681

          k = 0.0000 0.0000-0.2386 ( 17360 PWs)   bands (ev):

   -62.5982 -62.5813 -62.5807 -62.5807 -27.1648 -27.1648 -27.1645 -27.0023
   -26.9289 -26.9284 -26.9283 -26.8943 -26.8943 -26.8940 -26.8124 -26.8124
   -11.4911 -11.4910 -11.4910 -11.4541 -11.4540 -11.4540 -11.3268 -11.3268
   -11.2458 -11.1910 -11.1909 -11.1909 -11.1360 -11.1360 -11.0486 -11.0486
   -11.0484 -11.0391 -11.0390 -11.0390  -6.5422  -4.5257  -4.0607  -3.3056
    -3.3054  -3.3054  -2.7140  -2.1019  -2.1018  -2.1012  -1.8144  -1.8144
    -1.8138  -1.2762  -1.2760  -1.2760   1.1177   1.1178   1.1179   3.1370
     4.0556   4.0558   4.0559   4.2250   4.3799   4.3799   4.3800   5.4362
     5.4365   5.4365   5.8906   5.8908   5.8908   6.3986   6.3987   6.3990
     7.6101   7.6101   7.6101   7.6289   8.0284   8.0284   8.0284   8.1889
     8.1889   8.9470   8.9470   8.9474   8.9544   9.6150   9.6151   9.9862
     9.9863   9.9864  10.1160  10.1161  10.1161  10.1881  10.1882  10.1882
    10.5686  10.5686  10.5686  10.9636  10.9637  11.0896  11.2899  11.2899
    11.2901  12.0130  12.0130  13.3511  13.3511  13.3512  13.8611  13.8611
    13.8613  13.9236  14.3064  14.3067  14.3067  14.5091  14.5092  14.9631
    14.9631  15.2905  15.2905  15.2906  15.2985  15.2986  15.2986  16.0768
    16.0769  16.0770  16.4256  16.4256  16.4256  16.6373  16.9442  16.9443
    17.0592  17.2206  17.2206  17.2208  17.7188  17.7188  17.7188  17.8435
    18.2846  18.2847  18.2847  19.0890  19.0890  19.0890  19.1313  19.7170

          k = 0.0000 0.2887 0.0000 ( 17385 PWs)   bands (ev):

   -62.5957 -62.5835 -62.5811 -62.5807 -27.1379 -27.1376 -27.1145 -26.9916
   -26.9394 -26.9288 -26.9284 -26.9225 -26.9223 -26.8823 -26.8655 -26.8245
   -11.4666 -11.4436 -11.4435 -11.4335 -11.4334 -11.4120 -11.3495 -11.2858
   -11.2165 -11.2124 -11.2123 -11.1877 -11.1829 -11.1441 -11.0943 -11.0943
   -11.0824 -11.0763 -11.0453 -11.0452  -6.2512  -4.2389  -4.1480  -3.7755
    -3.3957  -3.3956  -2.5981  -2.5701  -2.1221  -2.1217  -1.9959  -1.8656
    -1.8039  -1.8035  -1.3220  -1.3219   1.6417   1.6418   2.3796   3.2666
     4.4330   4.4332   4.5874   4.6732   4.7981   4.7982   5.3642   5.3900
     5.4949   5.4950   5.6422   5.6423   5.9575   6.4461   6.5078   6.5080
     6.8032   6.8032   7.3950   7.4817   7.4818   7.5192   7.8248   8.3356
     8.4637   8.5760   8.6909   8.6909   8.8927   8.9597   9.0989   9.0991
     9.1940   9.2950   9.2950   9.7028   9.8517   9.8585  10.0344  10.1747
    10.1748  10.3228  10.4342  10.4342  10.5642  10.7320  10.7795  11.7434
    11.7839  11.7840  12.1644  13.5518  13.7399  13.7400  13.7821  13.8665
    13.9568  14.1575  14.2821  14.2824  14.5923  14.7000  14.7001  14.8268
    15.0000  15.1819  15.1821  15.2013  15.9223  16.0271  16.0737  16.0739
    16.3201  16.4957  16.4957  16.8807  16.8808  17.0240  17.0241  17.1467
    17.2941  17.7151  17.9070  17.9134  18.0167  18.1549  18.1550  18.2153
    18.5422  18.7502  18.7502  18.9728  19.7635  20.0004  20.0004  20.1807

          k = 0.0000 0.2887-0.2386 ( 17374 PWs)   bands (ev):

   -62.5957 -62.5835 -62.5811 -62.5807 -27.1379 -27.1376 -27.1145 -26.9916
   -26.9394 -26.9288 -26.9283 -26.9225 -26.9223 -26.8823 -26.8655 -26.8245
   -11.4666 -11.4436 -11.4435 -11.4335 -11.4334 -11.4119 -11.3495 -11.2858
   -11.2165 -11.2124 -11.2123 -11.1877 -11.1829 -11.1441 -11.0943 -11.0943
   -11.0824 -11.0763 -11.0453 -11.0452  -6.2511  -4.2453  -4.1480  -3.7647
    -3.3957  -3.3955  -2.6044  -2.5730  -2.1235  -2.1231  -1.9744  -1.8845
    -1.8016  -1.8012  -1.3230  -1.3228   1.6419   1.6420   2.3797   3.3245
     4.4291   4.4293   4.5422   4.5965   4.8073   4.8074   5.3278   5.3952
     5.4333   5.4335   5.7116   5.7117   6.0329   6.3767   6.5083   6.5086
     6.7700   6.7700   7.5162   7.5163   7.5170   7.8243   7.8645   8.1678
     8.3367   8.4637   8.6825   8.6826   8.9056   9.0894   9.0896   9.1279
     9.1940   9.2943   9.2944   9.4887   9.8560   9.8843   9.9359  10.1267
    10.1268  10.3230  10.4442  10.4675  10.4675  10.7342  10.9599  11.7430
    11.8224  11.8225  12.1964  13.6404  13.7582  13.7583  13.7835  13.9129
    14.0511  14.1478  14.2708  14.2711  14.5932  14.6710  14.6710  14.7344
    14.9995  15.1213  15.1733  15.1734  15.9016  15.9469  15.9471  16.0309
    16.3061  16.5231  16.5232  16.9481  16.9481  17.1221  17.1888  17.1888
    17.5884  17.7148  17.8414  17.8616  17.9364  18.0784  18.0785  18.2382
    18.5410  18.6013  18.6014  19.2295  19.4011  19.5954  20.2013  20.2014

          k = 0.0000-0.5774 0.0000 ( 17400 PWs)   bands (ev):

   -62.5898 -62.5893 -62.5811 -62.5807 -27.1009 -27.1005 -26.9917 -26.9913
   -26.9658 -26.9654 -26.9608 -26.9605 -26.9288 -26.9284 -26.8537 -26.8533
   -11.4078 -11.4077 -11.4077 -11.4076 -11.3747 -11.3746 -11.3046 -11.3045
   -11.2389 -11.2388 -11.1853 -11.1852 -11.1673 -11.1672 -11.1636 -11.1634
   -11.1453 -11.1451 -11.0457 -11.0456  -5.4017  -5.4016  -3.4888  -3.4885
    -3.4777  -3.4776  -2.9643  -2.9642  -2.3063  -2.3059  -2.1428  -2.1424
    -1.7921  -1.7917  -1.3660  -1.3658   2.3825   2.3826   3.6544   3.6545
     4.9256   4.9259   5.0697   5.0698   5.2083   5.2086   5.4229   5.4230
     5.4747   5.4749   6.0215   6.0216   6.0347   6.0347   6.4115   6.4117
     6.7898   6.7901   6.9331   6.9332   7.3314   7.3315   7.5381   7.5381
     7.5974   7.5974   8.1255   8.1255   8.4191   8.4195   8.6510   8.6511
     9.1498   9.1501   9.1991   9.1992   9.2697   9.2699   9.8940   9.8942
    10.1061  10.1063  10.1676  10.1677  10.4565  10.4565  11.1906  11.1907
    12.5506  12.5507  13.3198  13.3199  13.5683  13.5684  13.9802  13.9803
    13.9928  13.9931  14.2375  14.2376  14.3150  14.3153  14.5067  14.5069
    14.5105  14.5106  14.7728  14.7728  15.8307  15.8310  16.6207  16.6210
    17.2064  17.2065  17.2905  17.2906  17.4345  17.4346  18.0289  18.0290
    18.3153  18.3154  18.7343  18.7344  19.2620  19.2620  19.2761  19.2762
    19.2774  19.2775  19.8375  19.8375  19.9836  19.9837  20.2293  20.2294

          k = 0.0000-0.5774-0.2386 ( 17408 PWs)   bands (ev):

   -62.5898 -62.5893 -62.5811 -62.5807 -27.1009 -27.1005 -26.9917 -26.9913
   -26.9658 -26.9654 -26.9609 -26.9605 -26.9288 -26.9284 -26.8537 -26.8533
   -11.4078 -11.4077 -11.4077 -11.4076 -11.3747 -11.3746 -11.3046 -11.3045
   -11.2389 -11.2388 -11.1853 -11.1852 -11.1673 -11.1672 -11.1636 -11.1635
   -11.1453 -11.1452 -11.0457 -11.0456  -5.4016  -5.4015  -3.4941  -3.4937
    -3.4776  -3.4775  -2.9524  -2.9522  -2.3140  -2.3136  -2.1445  -2.1442
    -1.7888  -1.7884  -1.3677  -1.3675   2.3826   2.3827   3.6752   3.6753
     4.9366   4.9369   5.0692   5.0692   5.1811   5.1814   5.4183   5.4185
     5.4678   5.4680   5.9809   5.9809   6.0119   6.0120   6.3689   6.3691
     6.7629   6.7631   7.0642   7.0643   7.4070   7.4071   7.5208   7.5209
     7.5766   7.5766   8.1252   8.1252   8.4188   8.4192   8.8305   8.8306
     9.1572   9.1576   9.1919   9.1920   9.2779   9.2781   9.5841   9.5843
    10.0929  10.0931  10.1641  10.1643  10.4670  10.4670  11.1903  11.1905
    12.6097  12.6098  13.5728  13.5728  13.6138  13.6139  13.8408  13.8409
    13.9947  13.9950  14.1622  14.1623  14.2985  14.2988  14.3149  14.3150
    14.6190  14.6191  14.8740  14.8740  15.8271  15.8274  16.5461  16.5463
    17.2056  17.2057  17.5990  17.5991  17.7438  17.7439  18.1188  18.1189
    18.1747  18.1748  18.3181  18.3181  18.4095  18.4097  19.0399  19.0400
    19.6732  19.6732  20.0689  20.0691  20.0937  20.0938  20.1270  20.1270

          k = 0.2500 0.4330 0.0000 ( 17385 PWs)   bands (ev):

   -62.5913 -62.5854 -62.5850 -62.5791 -27.1054 -27.0608 -27.0608 -27.0006
   -26.9732 -26.9492 -26.9473 -26.9469 -26.9209 -26.8925 -26.8925 -26.8509
   -11.4177 -11.4107 -11.4106 -11.3725 -11.3678 -11.3677 -11.3556 -11.2671
   -11.2643 -11.2467 -11.1913 -11.1912 -11.1751 -11.1750 -11.1622 -11.1526
   -11.1480 -11.0750 -11.0749 -11.0546  -5.6789  -4.6037  -4.6037  -3.7218
    -3.2209  -2.8701  -2.8696  -2.7862  -2.3955  -2.2719  -2.2718  -2.0585
    -2.0580  -1.7959  -1.6507  -0.9021   1.7283   3.3401   3.3402   3.5916
     4.2738   4.9505   4.9564   5.0275   5.0896   5.0898   5.1634   5.4838
     5.4838   6.3716   6.3718   6.3758   6.4078   6.4082   6.4345   6.4347
     6.5603   6.6498   7.0116   7.2650   7.3066   7.3201   7.3202   7.4556
     7.4830   7.4831   7.5457   8.0774   8.2849   8.7445   8.7446   8.8035
     8.8378   8.8897   8.9492   9.1259   9.1260   9.7817   9.7818  10.1022
    10.1023  10.1672  10.1673  10.2824  10.4016  10.4699  10.8502  10.9739
    12.1066  13.0672  13.1850  13.1852  13.3714  13.4830  13.4831  13.5896
    14.0028  14.0124  14.0124  14.0186  14.4735  14.5260  14.5262  15.0924
    15.1128  15.1129  15.1414  15.7774  15.7929  16.3434  16.3435  16.6851
    16.8735  16.9755  17.1919  17.1919  17.7695  17.8305  17.8305  17.8805
    17.8806  17.8998  18.5670  18.6576  18.9667  18.9667  18.9972  18.9973
    19.2338  19.7379  19.8314  19.8339  19.9214  19.9214  19.9965  20.3739

          k = 0.2500 0.4330-0.2386 ( 17372 PWs)   bands (ev):

   -62.5913 -62.5854 -62.5850 -62.5791 -27.1054 -27.0608 -27.0608 -27.0006
   -26.9732 -26.9492 -26.9473 -26.9469 -26.9209 -26.8925 -26.8925 -26.8509
   -11.4177 -11.4107 -11.4106 -11.3725 -11.3678 -11.3677 -11.3556 -11.2671
   -11.2643 -11.2467 -11.1913 -11.1912 -11.1751 -11.1750 -11.1622 -11.1526
   -11.1480 -11.0750 -11.0749 -11.0546  -5.6788  -4.6037  -4.6036  -3.7275
    -3.2095  -2.8740  -2.8735  -2.7862  -2.4025  -2.2518  -2.2517  -2.0752
    -2.0747  -1.7961  -1.6504  -0.9022   1.7284   3.3414   3.3415   3.6251
     4.2735   4.9232   4.9913   5.0237   5.0756   5.1500   5.1502   5.4172
     5.4173   6.3099   6.3102   6.4027   6.4309   6.4310   6.4315   6.4315
     6.4983   6.6516   6.9390   7.2500   7.3152   7.3153   7.4774   7.5565
     7.5565   7.5836   7.6024   8.0918   8.1721   8.7383   8.7383   8.8089
     8.8332   8.8610   8.9552   9.2577   9.2578   9.6714   9.6716   9.9752
     9.9752  10.0907  10.2071  10.2072  10.4301  10.4656  10.8703  10.9709
    12.1210  13.0741  13.3186  13.3188  13.4668  13.4669  13.5436  13.5567
    13.9099  14.0887  14.0888  14.0891  14.4007  14.4009  14.6147  14.9966
    15.0084  15.0882  15.0883  15.6800  15.9040  16.2635  16.2636  16.8157
    17.0114  17.1319  17.3254  17.3254  17.7538  17.7711  17.7711  17.9347
    18.1099  18.1100  18.4807  18.5294  18.5612  18.5612  18.6516  18.9880
    19.1702  19.1703  19.6713  19.9970  20.1227  20.1227  20.2652  20.2676

     the Fermi energy is    11.7232 ev

     Writing output data file espresso.save

     init_run     :      7.11s CPU      6.37s WALL (       1 calls)
     electrons    :    289.66s CPU    137.73s WALL (       1 calls)

     Called by init_run:
     wfcinit      :      0.00s CPU      0.00s WALL (       1 calls)
     potinit      :      0.52s CPU      0.46s WALL (       1 calls)

     Called by electrons:
     c_bands      :    289.66s CPU    137.73s WALL (       1 calls)
     v_of_rho     :      0.44s CPU      0.37s WALL (       1 calls)
     newd         :      2.64s CPU      1.73s WALL (       1 calls)

     Called by c_bands:
     init_us_2    :      0.09s CPU      0.10s WALL (       8 calls)
     cegterg      :    273.20s CPU    128.55s WALL (       9 calls)

     Called by sum_band:

     Called by *egterg:
     h_psi        :    120.12s CPU     65.21s WALL (     173 calls)
     s_psi        :     18.75s CPU      6.62s WALL (     173 calls)
     g_psi        :      0.30s CPU      0.30s WALL (     156 calls)
     cdiaghg      :     30.72s CPU     19.03s WALL (     164 calls)

     Called by h_psi:
     h_psi:pot    :    119.02s CPU     64.10s WALL (     173 calls)
     h_psi:calbec :     19.19s CPU      6.84s WALL (     173 calls)
     vloc_psi     :     81.27s CPU     50.64s WALL (     173 calls)
     add_vuspsi   :     18.56s CPU      6.62s WALL (     173 calls)

     General routines
     calbec       :     19.19s CPU      6.84s WALL (     173 calls)
     fft          :      0.28s CPU      0.24s WALL (      13 calls)
     ffts         :      0.00s CPU      0.01s WALL (       1 calls)
     fftw         :     50.06s CPU     25.59s WALL (   26656 calls)
     interpolate  :      0.03s CPU      0.03s WALL (       1 calls)
     davcio       :      0.00s CPU      0.10s WALL (      16 calls)

     Parallel routines
     fft_scatter  :      5.98s CPU      7.63s WALL (   26670 calls)

     PWSCF        :  4m57.50s CPU     2m25.51s WALL


   This run was terminated on:  13:28:59   7May2021            

=------------------------------------------------------------------------------=
   JOB DONE.
=------------------------------------------------------------------------------=
