
     Program PWSCF v.6.1 starts on  7May2021 at 14:50:54 

     This program is part of the open-source Quantum ESPRESSO suite
     for quantum simulation of materials; please cite
         "P. Giannozzi et al., J. Phys.:Condens. Matter 21 395502 (2009);
          URL http://www.quantum-espresso.org", 
     in publications or presentations arising from this work. More details at
     http://www.quantum-espresso.org/quote

     Parallel version (MPI & OpenMP), running on      12 processor cores
     Number of MPI processes:                 4
     Threads/MPI process:                     3
     R & G space division:  proc/nbgrp/npool/nimage =       4
     Reading input from espresso.in

     Current dimensions of program PWSCF are:
     Max number of different atomic species (ntypx) = 10
     Max number of k-points (npk) =  40000
     Max angular momentum in pseudopotentials (lmaxx) =  3
               file Sn.pbe-dn-rrkjus_psl.1.0.0.UPF: wavefunction(s)  5S 4D renormalized

     gamma-point specific algorithms are used

     Subspace diagonalization in iterative solution of the eigenvalue problem:
     a serial algorithm will be used

     Found symmetry operation: I + ( -0.0000  0.3333  0.0000)
     This is a supercell, fractional translations are disabled

     Parallelization info
     --------------------
     sticks:   dense  smooth     PW     G-vecs:    dense   smooth      PW
     Min        2390    1065    266               263998    78230    9770
     Max        2392    1068    268               264012    78236    9776
     Sum        9565    4267   1069              1056033   312933   39091


     Title: 
     WSe2_SnSe2_non-pol_3x3x1_7Mei(SCF)                                         


     bravais-lattice index     =            4
     lattice parameter (alat)  =      18.0974  a.u.
     unit-cell volume          =    7170.7032 (a.u.)^3
     number of atoms/cell      =           54
     number of atomic types    =            3
     number of electrons       =       468.00
     number of Kohn-Sham states=          281
     kinetic-energy cutoff     =      47.0743  Ry
     charge density cutoff     =     423.6680  Ry
     convergence threshold     =      1.0E-06
     mixing beta               =       0.4000
     number of iterations used =            8  plain     mixing
     Exchange-correlation      =  SLA  PW   PBE  PBE ( 1  4  3  4 0 0)

     celldm(1)=  18.097378  celldm(2)=   0.000000  celldm(3)=   1.396961
     celldm(4)=   0.000000  celldm(5)=   0.000000  celldm(6)=   0.000000

     crystal axes: (cart. coord. in units of alat)
               a(1) = (   1.000000   0.000000   0.000000 )  
               a(2) = (  -0.500000   0.866025   0.000000 )  
               a(3) = (   0.000000   0.000000   1.396961 )  

     reciprocal axes: (cart. coord. in units 2 pi/alat)
               b(1) = (  1.000000  0.577350 -0.000000 )  
               b(2) = (  0.000000  1.154701  0.000000 )  
               b(3) = (  0.000000 -0.000000  0.715840 )  


     PseudoPot. # 1 for Sn read from file:
     C:\Users\ROG\.burai\.pseudopot/Sn.pbe-dn-rrkjus_psl.1.0.0.UPF
     MD5 check sum: 9f7ad82915168e737b3f6a04b7e1f5ac
     Pseudo is Ultrasoft + core correction, Zval = 14.0
     Generated using "atomic" code by A. Dal Corso  v.5.1.2
     Using radial grid of 1243 points,  6 beta functions with: 
                l(1) =   0
                l(2) =   0
                l(3) =   1
                l(4) =   1
                l(5) =   2
                l(6) =   2
     Q(r) pseudized with 0 coefficients 


     PseudoPot. # 2 for Se read from file:
     C:\Users\ROG\.burai\.pseudopot/Se.pbe-n-rrkjus_psl.1.0.0.UPF
     MD5 check sum: 5f5e5c15c95449acb3b45b44a6529d2d
     Pseudo is Ultrasoft + core correction, Zval =  6.0
     Generated using "atomic" code by A. Dal Corso  v.5.1.2
     Using radial grid of 1211 points,  4 beta functions with: 
                l(1) =   0
                l(2) =   0
                l(3) =   1
                l(4) =   1
     Q(r) pseudized with 0 coefficients 


     PseudoPot. # 3 for W  read from file:
     C:\Users\ROG\.burai\.pseudopot/W.pbe-nsp-van.UPF
     MD5 check sum: bb4869ded537247882558ca8e5af5f09
     Pseudo is Ultrasoft + core correction, Zval = 14.0
     Generated by new atomic code, or converted to UPF format
     Using radial grid of  923 points,  6 beta functions with: 
                l(1) =   0
                l(2) =   0
                l(3) =   1
                l(4) =   1
                l(5) =   2
                l(6) =   2
     Q(r) pseudized with  6 coefficients,  rinner =    1.000   1.000   1.000
                                                       1.000   1.000

     atomic species   valence    mass     pseudopotential
        Sn            14.00   118.71000     Sn( 1.00)
        Se             6.00    78.96000     Se( 1.00)
        W             14.00   183.84000     W ( 1.00)

      6 Sym. Ops. (no inversion) found



   Cartesian axes

     site n.     atom                  positions (alat units)
         1           Sn  tau(   1) = (   0.0000000   0.1924498   1.0477200  )
         2           Sn  tau(   2) = (  -0.1666666   0.4811247   1.0477200  )
         3           Sn  tau(   3) = (  -0.3333331   0.7697998   1.0477200  )
         4           Sn  tau(   4) = (   0.3333331   0.1924498   1.0477200  )
         5           Sn  tau(   5) = (   0.1666666   0.4811247   1.0477200  )
         6           Sn  tau(   6) = (   0.0000000   0.7697998   1.0477200  )
         7           Sn  tau(   7) = (   0.6666664   0.1924498   1.0477200  )
         8           Sn  tau(   8) = (   0.4999998   0.4811247   1.0477200  )
         9           Sn  tau(   9) = (   0.3333331   0.7697998   1.0477200  )
        10           Se  tau(  10) = (   0.1666665   0.0962249   0.8843902  )
        11           Se  tau(  11) = (  -0.0000002   0.3848998   0.8843902  )
        12           Se  tau(  12) = (  -0.1666668   0.6735749   0.8843902  )
        13           Se  tau(  13) = (   0.4999996   0.0962249   0.8843902  )
        14           Se  tau(  14) = (   0.3333330   0.3848998   0.8843902  )
        15           Se  tau(  15) = (   0.1666665   0.6735749   0.8843902  )
        16           Se  tau(  16) = (   0.8333327   0.0962249   0.8843902  )
        17           Se  tau(  17) = (   0.6666661   0.3848998   0.8843902  )
        18           Se  tau(  18) = (   0.4999996   0.6735749   0.8843902  )
        19           Se  tau(  19) = (   0.0000000   0.1924498   0.5125698  )
        20           Se  tau(  20) = (  -0.1666666   0.4811247   0.5125698  )
        21           Se  tau(  21) = (  -0.3333331   0.7697998   0.5125698  )
        22           Se  tau(  22) = (   0.3333331   0.1924498   0.5125698  )
        23           Se  tau(  23) = (   0.1666666   0.4811247   0.5125698  )
        24           Se  tau(  24) = (   0.0000000   0.7697998   0.5125698  )
        25           Se  tau(  25) = (   0.6666664   0.1924498   0.5125698  )
        26           Se  tau(  26) = (   0.4999998   0.4811247   0.5125698  )
        27           Se  tau(  27) = (   0.3333331   0.7697998   0.5125698  )
        28           Se  tau(  28) = (   0.1666665   0.0962249   1.2110497  )
        29           Se  tau(  29) = (  -0.0000002   0.3848998   1.2110497  )
        30           Se  tau(  30) = (  -0.1666668   0.6735749   1.2110497  )
        31           Se  tau(  31) = (   0.4999996   0.0962249   1.2110497  )
        32           Se  tau(  32) = (   0.3333330   0.3848998   1.2110497  )
        33           Se  tau(  33) = (   0.1666665   0.6735749   1.2110497  )
        34           Se  tau(  34) = (   0.8333327   0.0962249   1.2110497  )
        35           Se  tau(  35) = (   0.6666661   0.3848998   1.2110497  )
        36           Se  tau(  36) = (   0.4999996   0.6735749   1.2110497  )
        37           Se  tau(  37) = (   0.0000000   0.1924498   0.1859102  )
        38           Se  tau(  38) = (  -0.1666666   0.4811247   0.1859102  )
        39           Se  tau(  39) = (  -0.3333331   0.7697998   0.1859102  )
        40           Se  tau(  40) = (   0.3333331   0.1924498   0.1859102  )
        41           Se  tau(  41) = (   0.1666666   0.4811247   0.1859102  )
        42           Se  tau(  42) = (   0.0000000   0.7697998   0.1859102  )
        43           Se  tau(  43) = (   0.6666664   0.1924498   0.1859102  )
        44           Se  tau(  44) = (   0.4999998   0.4811247   0.1859102  )
        45           Se  tau(  45) = (   0.3333331   0.7697998   0.1859102  )
        46           W   tau(  46) = (   0.1666665   0.0962249   0.3492400  )
        47           W   tau(  47) = (  -0.0000002   0.3848998   0.3492400  )
        48           W   tau(  48) = (  -0.1666668   0.6735749   0.3492400  )
        49           W   tau(  49) = (   0.4999996   0.0962249   0.3492400  )
        50           W   tau(  50) = (   0.3333330   0.3848998   0.3492400  )
        51           W   tau(  51) = (   0.1666665   0.6735749   0.3492400  )
        52           W   tau(  52) = (   0.8333327   0.0962249   0.3492400  )
        53           W   tau(  53) = (   0.6666661   0.3848998   0.3492400  )
        54           W   tau(  54) = (   0.4999996   0.6735749   0.3492400  )

     number of k points=     1  gaussian smearing, width (Ry)=  0.0100
                       cart. coord. in units 2pi/alat
        k(    1) = (   0.0000000   0.0000000   0.0000000), wk =   2.0000000

     Dense  grid:   528017 G-vectors     FFT dimensions: ( 120, 120, 180)

     Smooth grid:   156467 G-vectors     FFT dimensions: (  80,  80, 120)

     Estimated max dynamical RAM per process >     355.55MB

     Estimated total allocated dynamical RAM >    1422.20MB

     Initial potential from superposition of free atoms

     starting charge  467.98040, renormalised to  468.00000
     Starting wfc are  342 randomized atomic wfcs

     total cpu time spent up to now is       21.5 secs

     Self-consistent Calculation

     iteration #  1     ecut=    47.07 Ry     beta=0.40
     Davidson diagonalization with overlap
     ethr =  1.00E-02,  avg # of iterations =  3.0

     Threshold (ethr) on eigenvalues was too large:
     Diagonalizing with lowered threshold

     Davidson diagonalization with overlap
     ethr =  6.41E-04,  avg # of iterations =  1.0

     total cpu time spent up to now is       51.5 secs

     total energy              =   -3646.21307459 Ry
     Harris-Foulkes estimate   =   -3647.74798047 Ry
     estimated scf accuracy    <       3.04985501 Ry

     iteration #  2     ecut=    47.07 Ry     beta=0.40
     Davidson diagonalization with overlap
     ethr =  6.52E-04,  avg # of iterations =  7.0

     total cpu time spent up to now is       71.2 secs

     total energy              =   -3642.45786325 Ry
     Harris-Foulkes estimate   =   -3648.73428726 Ry
     estimated scf accuracy    <      55.84926532 Ry

     iteration #  3     ecut=    47.07 Ry     beta=0.40
     Davidson diagonalization with overlap
     ethr =  6.52E-04,  avg # of iterations =  7.0

     total cpu time spent up to now is       90.0 secs

     total energy              =   -3646.87699716 Ry
     Harris-Foulkes estimate   =   -3647.27211105 Ry
     estimated scf accuracy    <       3.74846067 Ry

     iteration #  4     ecut=    47.07 Ry     beta=0.40
     Davidson diagonalization with overlap
     ethr =  6.52E-04,  avg # of iterations =  1.0

     total cpu time spent up to now is      105.1 secs

     total energy              =   -3647.05784134 Ry
     Harris-Foulkes estimate   =   -3647.09111579 Ry
     estimated scf accuracy    <       0.12242252 Ry

     iteration #  5     ecut=    47.07 Ry     beta=0.40
     Davidson diagonalization with overlap
     ethr =  2.62E-05,  avg # of iterations =  2.0

     total cpu time spent up to now is      121.8 secs

     total energy              =   -3647.06660054 Ry
     Harris-Foulkes estimate   =   -3647.07110810 Ry
     estimated scf accuracy    <       0.02001705 Ry

     iteration #  6     ecut=    47.07 Ry     beta=0.40
     Davidson diagonalization with overlap
     ethr =  4.28E-06,  avg # of iterations =  3.0

     total cpu time spent up to now is      138.7 secs

     total energy              =   -3647.06828540 Ry
     Harris-Foulkes estimate   =   -3647.07001692 Ry
     estimated scf accuracy    <       0.01028061 Ry

     iteration #  7     ecut=    47.07 Ry     beta=0.40
     Davidson diagonalization with overlap
     ethr =  2.20E-06,  avg # of iterations =  2.0

     total cpu time spent up to now is      154.3 secs

     total energy              =   -3647.06875659 Ry
     Harris-Foulkes estimate   =   -3647.06909532 Ry
     estimated scf accuracy    <       0.00237085 Ry

     iteration #  8     ecut=    47.07 Ry     beta=0.40
     Davidson diagonalization with overlap
     ethr =  5.07E-07,  avg # of iterations =  2.0

     total cpu time spent up to now is      170.1 secs

     total energy              =   -3647.06883485 Ry
     Harris-Foulkes estimate   =   -3647.06903405 Ry
     estimated scf accuracy    <       0.00144071 Ry

     iteration #  9     ecut=    47.07 Ry     beta=0.40
     Davidson diagonalization with overlap
     ethr =  3.08E-07,  avg # of iterations =  2.0

     total cpu time spent up to now is      185.7 secs

     total energy              =   -3647.06887501 Ry
     Harris-Foulkes estimate   =   -3647.06894903 Ry
     estimated scf accuracy    <       0.00052845 Ry

     iteration # 10     ecut=    47.07 Ry     beta=0.40
     Davidson diagonalization with overlap
     ethr =  1.13E-07,  avg # of iterations =  1.0

     total cpu time spent up to now is      201.0 secs

     total energy              =   -3647.06884818 Ry
     Harris-Foulkes estimate   =   -3647.06890320 Ry
     estimated scf accuracy    <       0.00032523 Ry

     iteration # 11     ecut=    47.07 Ry     beta=0.40
     Davidson diagonalization with overlap
     ethr =  6.95E-08,  avg # of iterations =  2.0

     total cpu time spent up to now is      217.3 secs

     total energy              =   -3647.06884597 Ry
     Harris-Foulkes estimate   =   -3647.06886521 Ry
     estimated scf accuracy    <       0.00018070 Ry

     iteration # 12     ecut=    47.07 Ry     beta=0.40
     Davidson diagonalization with overlap
     ethr =  3.86E-08,  avg # of iterations =  1.0

     total cpu time spent up to now is      232.5 secs

     total energy              =   -3647.06881429 Ry
     Harris-Foulkes estimate   =   -3647.06884998 Ry
     estimated scf accuracy    <       0.00008683 Ry

     iteration # 13     ecut=    47.07 Ry     beta=0.40
     Davidson diagonalization with overlap
     ethr =  1.86E-08,  avg # of iterations =  2.0

     total cpu time spent up to now is      248.2 secs

     total energy              =   -3647.06883150 Ry
     Harris-Foulkes estimate   =   -3647.06883989 Ry
     estimated scf accuracy    <       0.00003453 Ry

     iteration # 14     ecut=    47.07 Ry     beta=0.40
     Davidson diagonalization with overlap
     ethr =  7.38E-09,  avg # of iterations =  2.0

     total cpu time spent up to now is      263.6 secs

     End of self-consistent calculation

          k = 0.0000 0.0000 0.0000 ( 19546 PWs)   bands (ev):

   -62.5403 -62.5276 -62.5275 -62.5273 -62.5273 -62.5272 -62.5270 -62.5209
   -62.5207 -27.0336 -26.9972 -26.9972 -26.9946 -26.9946 -26.9945 -26.9944
   -26.9944 -26.9943 -26.9785 -26.9784 -26.9782 -26.9781 -26.9780 -26.9779
   -26.9504 -26.9502 -26.9493 -26.9493 -26.7884 -26.7883 -26.7882 -26.7882
   -26.7881 -26.7880 -26.7265 -26.7265 -11.5109 -11.5109 -11.5109 -11.5108
   -11.5108 -11.5108 -11.4429 -11.4429 -11.4160 -11.4160 -11.4159 -11.4159
   -11.4159 -11.4159 -11.3944 -11.3944 -11.3847 -11.3847 -11.3205 -11.3205
   -11.2970 -11.2416 -11.2416 -11.2210 -11.2210 -11.2210 -11.2209 -11.2209
   -11.2209 -11.1830 -11.1830 -11.1830 -11.1829 -11.1829 -11.1829 -11.1809
   -11.1809 -11.1484 -11.1483 -11.1483 -11.1483 -11.1483 -11.1483 -11.1093
   -11.1093  -6.3287  -4.6043  -4.3604  -4.3604  -4.3604  -4.3604  -4.3604
    -4.3604  -3.7977  -2.9510  -2.9510  -2.9509  -2.9509  -2.9508  -2.9508
    -2.8148  -2.3800  -2.3800  -2.1962  -2.1962  -2.1962  -2.1961  -2.1961
    -2.1961  -1.9490  -1.9490  -1.9490  -1.9489  -1.9489  -1.9489  -1.8119
    -1.8118  -1.7142  -1.7142  -0.5137  -0.5137   2.0112   2.0112   3.1954
     3.2214   3.2214   3.2214   3.2214   3.2214   3.2215   3.9164   3.9164
     4.3348   4.8244   4.8244   4.8244   4.8245   4.8245   4.8245   4.8400
     4.8400   5.1729   5.1729   5.3155   5.3155   5.4133   5.4133   5.4133
     5.4133   5.4133   5.4133   6.1337   6.1337   6.1578   6.1578   6.1578
     6.1579   6.1579   6.1579   6.3078   6.3078   6.3078   6.3079   6.3079
     6.3079   6.3216   6.3216   6.3216   6.3217   6.3217   6.3217   6.6835
     6.6835   6.9829   6.9829   7.2275   7.2275   7.3882   7.5060   7.5060
     7.9214   7.9214   7.9215   7.9216   7.9216   7.9216   8.1910   8.1910
     8.7035   8.7035   8.7816   8.7817   8.7817   8.7817   8.7817   8.7817
     8.8801   8.8801   8.8801   8.8802   8.8802   8.8802   9.4206   9.5574
     9.5574   9.6064   9.6064   9.6064   9.6065   9.6065   9.6065   9.6720
     9.6721   9.6721   9.6722   9.6722   9.6722   9.8586   9.8586   9.8586
     9.8586   9.8586   9.8587  10.7409  10.7409  10.7900  11.0579  11.0579
    11.1259  11.1259  11.1259  11.1259  11.1259  11.1259  11.2173  11.2174
    12.2975  12.2975  12.7509  12.7510  12.8104  12.8104  12.8182  12.8182
    12.8730  12.8730  12.8730  12.8730  12.8730  12.8730  13.5455  13.5456
    13.5456  13.5456  13.5457  13.5457  13.8004  13.8004  13.8005  13.8005
    13.8006  13.8006  14.0582  14.1481  14.1481  14.1481  14.1481  14.1481
    14.1481  14.2609  14.2609  14.4356  14.4356  14.8959  14.8960  14.9621
    14.9622  14.9622  14.9623  14.9623  14.9623  15.4377  15.4377  16.1380
    16.1381

     the Fermi energy is    12.5193 ev

!    total energy              =   -3647.06883559 Ry
     Harris-Foulkes estimate   =   -3647.06883581 Ry
     estimated scf accuracy    <       0.00000039 Ry

     The total energy is the sum of the following terms:

     one-electron contribution =   -1951.89898137 Ry
     hartree contribution      =    1236.11883389 Ry
     xc contribution           =   -1049.93688701 Ry
     ewald contribution        =   -1881.35014171 Ry
     smearing contrib. (-TS)   =      -0.00165939 Ry

     convergence has been achieved in  14 iterations

     Writing output data file espresso.save

     init_run     :     26.22s CPU     20.75s WALL (       1 calls)
     electrons    :    466.73s CPU    242.21s WALL (       1 calls)

     Called by init_run:
     wfcinit      :      7.94s CPU      4.31s WALL (       1 calls)
     potinit      :      5.08s CPU      4.88s WALL (       1 calls)

     Called by electrons:
     c_bands      :    241.67s CPU    123.84s WALL (      15 calls)
     sum_band     :    151.53s CPU     72.58s WALL (      15 calls)
     v_of_rho     :     16.25s CPU     12.75s WALL (      15 calls)
     newd         :     58.36s CPU     32.21s WALL (      15 calls)
     mix_rho      :      2.84s CPU      2.61s WALL (      15 calls)

     Called by c_bands:
     init_us_2    :      1.25s CPU      1.22s WALL (      31 calls)
     regterg      :    239.73s CPU    121.89s WALL (      15 calls)

     Called by sum_band:
     sum_band:bec :      0.02s CPU      0.05s WALL (      15 calls)
     addusdens    :    103.73s CPU     43.34s WALL (      15 calls)

     Called by *egterg:
     h_psi        :    137.36s CPU     79.29s WALL (      54 calls)
     s_psi        :     27.30s CPU      9.37s WALL (      54 calls)
     g_psi        :      0.19s CPU      0.18s WALL (      38 calls)
     rdiaghg      :      9.83s CPU      7.97s WALL (      52 calls)

     Called by h_psi:
     h_psi:pot    :    136.52s CPU     78.46s WALL (      54 calls)
     h_psi:calbec :     27.81s CPU      9.59s WALL (      54 calls)
     vloc_psi     :     81.36s CPU     59.39s WALL (      54 calls)
     add_vuspsi   :     27.34s CPU      9.48s WALL (      54 calls)

     General routines
     calbec       :     39.83s CPU     13.76s WALL (      69 calls)
     fft          :     15.64s CPU     11.72s WALL (     240 calls)
     ffts         :      0.33s CPU      0.27s WALL (      30 calls)
     fftw         :     67.25s CPU     39.62s WALL (   11795 calls)
     interpolate  :      2.53s CPU      2.02s WALL (      30 calls)

     Parallel routines
     fft_scatter  :     19.80s CPU     22.97s WALL (   12065 calls)

     PWSCF        :  8m13.86s CPU     4m24.09s WALL


   This run was terminated on:  14:55:18   7May2021            

=------------------------------------------------------------------------------=
   JOB DONE.
=------------------------------------------------------------------------------=
