
     Program PWSCF v.6.1 starts on  7May2021 at 13:29:49 

     This program is part of the open-source Quantum ESPRESSO suite
     for quantum simulation of materials; please cite
         "P. Giannozzi et al., J. Phys.:Condens. Matter 21 395502 (2009);
          URL http://www.quantum-espresso.org", 
     in publications or presentations arising from this work. More details at
     http://www.quantum-espresso.org/quote

     Parallel version (MPI & OpenMP), running on      12 processor cores
     Number of MPI processes:                 4
     Threads/MPI process:                     3
     R & G space division:  proc/nbgrp/npool/nimage =       4
     Reading input from espresso.in
Warning: card &BANDS ignored
Warning: card     FILBAND        = "ESPRESSO.BAND1" ignored
Warning: card     LSYM           = .FALSE. ignored
Warning: card     OUTDIR         = "./" ignored
Warning: card     PREFIX         = "ESPRESSO" ignored
Warning: card     SPIN_COMPONENT = 1 ignored
Warning: card / ignored

     Current dimensions of program PWSCF are:
     Max number of different atomic species (ntypx) = 10
     Max number of k-points (npk) =  40000
     Max angular momentum in pseudopotentials (lmaxx) =  3
     Message from routine iosys:
     wrong startingpot: use default (2)

     Atomic positions and unit cell read from directory:
     ./espresso.save/

               file Sn.pbe-dn-rrkjus_psl.1.0.0.UPF: wavefunction(s)  5S 4D renormalized

     Subspace diagonalization in iterative solution of the eigenvalue problem:
     a serial algorithm will be used

     Found symmetry operation: I + ( -0.0000  0.5000  0.0000)
     This is a supercell, fractional translations are disabled

     Parallelization info
     --------------------
     sticks:   dense  smooth     PW     G-vecs:    dense   smooth      PW
     Min        1066     472    128               117375    34788    5072
     Max        1068     473    131               117376    34799    5074
     Sum        4267    1891    517               469503   139185   20291



     bravais-lattice index     =            4
     lattice parameter (alat)  =      12.0649  a.u.
     unit-cell volume          =    3186.9792 (a.u.)^3
     number of atoms/cell      =           24
     number of atomic types    =            3
     number of electrons       =       208.00
     number of Kohn-Sham states=          152
     kinetic-energy cutoff     =      47.0743  Ry
     charge density cutoff     =     423.6680  Ry
     Exchange-correlation      =  SLA  PW   PBE  PBE ( 1  4  3  4 0 0)

     celldm(1)=  12.064919  celldm(2)=   0.000000  celldm(3)=   2.095441
     celldm(4)=   0.000000  celldm(5)=   0.000000  celldm(6)=   0.000000

     crystal axes: (cart. coord. in units of alat)
               a(1) = (   1.000000   0.000000   0.000000 )  
               a(2) = (  -0.500000   0.866025   0.000000 )  
               a(3) = (   0.000000   0.000000   2.095441 )  

     reciprocal axes: (cart. coord. in units 2 pi/alat)
               b(1) = (  1.000000  0.577350 -0.000000 )  
               b(2) = (  0.000000  1.154701  0.000000 )  
               b(3) = (  0.000000 -0.000000  0.477227 )  


     PseudoPot. # 1 for Sn read from file:
     C:\Users\ROG\.burai\.pseudopot/Sn.pbe-dn-rrkjus_psl.1.0.0.UPF
     MD5 check sum: 6923576d35b7bb477f9d834f190d2db6
     Pseudo is Ultrasoft + core correction, Zval = 14.0
     Generated using "atomic" code by A. Dal Corso  v.5.1.2
     Using radial grid of 1243 points,  6 beta functions with: 
                l(1) =   0
                l(2) =   0
                l(3) =   1
                l(4) =   1
                l(5) =   2
                l(6) =   2
     Q(r) pseudized with 0 coefficients 


     PseudoPot. # 2 for Se read from file:
     C:\Users\ROG\.burai\.pseudopot/Se.pbe-n-rrkjus_psl.1.0.0.UPF
     MD5 check sum: b4fde84b927950421ac83de11f467c93
     Pseudo is Ultrasoft + core correction, Zval =  6.0
     Generated using "atomic" code by A. Dal Corso  v.5.1.2
     Using radial grid of 1211 points,  4 beta functions with: 
                l(1) =   0
                l(2) =   0
                l(3) =   1
                l(4) =   1
     Q(r) pseudized with 0 coefficients 


     PseudoPot. # 3 for W  read from file:
     C:\Users\ROG\.burai\.pseudopot/W.pbe-nsp-van.UPF
     MD5 check sum: d6466f82beb0ca8b88800d998c44bca0
     Pseudo is Ultrasoft + core correction, Zval = 14.0
     Generated by new atomic code, or converted to UPF format
     Using radial grid of  923 points,  6 beta functions with: 
                l(1) =   0
                l(2) =   0
                l(3) =   1
                l(4) =   1
                l(5) =   2
                l(6) =   2
     Q(r) pseudized with  6 coefficients,  rinner =    1.000   1.000   1.000
                                                       1.000   1.000

     atomic species   valence    mass     pseudopotential
        Sn            14.00   118.71000     Sn( 1.00)
        Se             6.00    78.96000     Se( 1.00)
        W             14.00   183.84000     W ( 1.00)

      6 Sym. Ops. (no inversion) found



   Cartesian axes

     site n.     atom                  positions (alat units)
         1           Sn  tau(   1) = (  -0.0000005   0.2886747   1.5715800  )
         2           Sn  tau(   2) = (  -0.2500003   0.7216871   1.5715800  )
         3           Sn  tau(   3) = (   0.4999992   0.2886747   1.5715800  )
         4           Sn  tau(   4) = (   0.2499994   0.7216871   1.5715800  )
         5           Se  tau(   5) = (   0.2499998   0.1443369   1.3265853  )
         6           Se  tau(   6) = (   0.0000000   0.5773493   1.3265853  )
         7           Se  tau(   7) = (   0.7499995   0.1443369   1.3265853  )
         8           Se  tau(   8) = (   0.4999997   0.5773493   1.3265853  )
         9           Se  tau(   9) = (  -0.0000005   0.2886747   0.7688546  )
        10           Se  tau(  10) = (  -0.2500003   0.7216871   0.7688546  )
        11           Se  tau(  11) = (   0.4999992   0.2886747   0.7688546  )
        12           Se  tau(  12) = (   0.2499994   0.7216871   0.7688546  )
        13           Se  tau(  13) = (   0.2499998   0.1443369   1.8165746  )
        14           Se  tau(  14) = (   0.0000000   0.5773493   1.8165746  )
        15           Se  tau(  15) = (   0.7499995   0.1443369   1.8165746  )
        16           Se  tau(  16) = (   0.4999997   0.5773493   1.8165746  )
        17           Se  tau(  17) = (  -0.0000005   0.2886747   0.2788653  )
        18           Se  tau(  18) = (  -0.2500003   0.7216871   0.2788653  )
        19           Se  tau(  19) = (   0.4999992   0.2886747   0.2788653  )
        20           Se  tau(  20) = (   0.2499994   0.7216871   0.2788653  )
        21           W   tau(  21) = (   0.2499998   0.1443369   0.5238600  )
        22           W   tau(  22) = (   0.0000000   0.5773493   0.5238600  )
        23           W   tau(  23) = (   0.7499995   0.1443369   0.5238600  )
        24           W   tau(  24) = (   0.4999997   0.5773493   0.5238600  )

     number of k points=   183  gaussian smearing, width (Ry)=  0.0100

     Number of k-points >= 100: set verbosity='high' to print them.

     Dense  grid:   469503 G-vectors     FFT dimensions: (  80,  80, 180)

     Smooth grid:   139185 G-vectors     FFT dimensions: (  54,  54, 120)

     Estimated max dynamical RAM per process >     157.74MB

     Estimated total allocated dynamical RAM >     630.96MB

     The potential is recalculated from file :
     ./espresso.save/charge-density.dat

     Starting wfc are  152 randomized atomic wfcs

     Band Structure Calculation
     Davidson diagonalization with overlap

     ethr =  4.81E-10,  avg # of iterations = 19.6

     total cpu time spent up to now is     3472.5 secs

     End of band structure calculation

     Number of k-points >= 100: set verbosity='high' to print the bands.

     Writing output data file espresso.save

     init_run     :      7.44s CPU      6.39s WALL (       1 calls)
     electrons    :   7422.02s CPU   3465.54s WALL (       1 calls)

     Called by init_run:
     wfcinit      :      0.00s CPU      0.00s WALL (       1 calls)
     potinit      :      0.52s CPU      0.38s WALL (       1 calls)

     Called by electrons:
     c_bands      :   7422.02s CPU   3465.53s WALL (       1 calls)
     v_of_rho     :      0.45s CPU      0.31s WALL (       1 calls)
     newd         :      2.86s CPU      1.73s WALL (       1 calls)

     Called by c_bands:
     init_us_2    :      2.30s CPU      2.58s WALL (     183 calls)
     cegterg      :   7002.92s CPU   3242.70s WALL (     220 calls)

     Called by sum_band:

     Called by *egterg:
     h_psi        :   2957.83s CPU   1593.28s WALL (    3990 calls)
     s_psi        :    503.12s CPU    175.36s WALL (    3990 calls)
     g_psi        :      6.88s CPU      6.71s WALL (    3587 calls)
     cdiaghg      :    721.45s CPU    464.26s WALL (    3770 calls)

     Called by h_psi:
     h_psi:pot    :   2933.81s CPU   1569.52s WALL (    3990 calls)
     h_psi:calbec :    517.42s CPU    182.44s WALL (    3990 calls)
     vloc_psi     :   1906.20s CPU   1208.36s WALL (    3990 calls)
     add_vuspsi   :    510.16s CPU    178.70s WALL (    3990 calls)

     General routines
     calbec       :    517.42s CPU    182.44s WALL (    3990 calls)
     fft          :      0.33s CPU      0.21s WALL (      13 calls)
     ffts         :      0.00s CPU      0.01s WALL (       1 calls)
     fftw         :   1210.77s CPU    650.25s WALL (  621708 calls)
     interpolate  :      0.02s CPU      0.03s WALL (       1 calls)
     davcio       :      0.00s CPU     20.49s WALL (     366 calls)

     Parallel routines
     fft_scatter  :    136.09s CPU    185.28s WALL (  621722 calls)

     PWSCF        :     2h 4m CPU        0h59m WALL


   This run was terminated on:  14:29: 2   7May2021            

=------------------------------------------------------------------------------=
   JOB DONE.
=------------------------------------------------------------------------------=
